LAMMPS data file via write_data, version 23 Jun 2022, timestep = 7500000

6054 atoms
4 atom types
4000 bonds
1 bond types
2000 angles
1 angle types

-19.823310483970435 19.823310483970435 xlo xhi
-19.823310483970435 19.823310483970435 ylo yhi
-19.823310483970435 19.823310483970435 zlo zhi

Masses

1 22.99
2 35.423
3 15.999
4 1.008

Bond Coeffs # harmonic

1 517.63 1

Angle Coeffs # harmonic

1 37.9505 109.47

Atoms # full

2689 933 3 -0.8476 -16.716750676531653 -17.83092687584335 -16.62495490101355 13 -75 19
2713 941 3 -0.8476 -18.139575166756288 -16.304288844605075 -18.497043309914964 -13 5 15
2715 941 4 0.4238 -17.646690353656044 -16.334216076364353 -19.366623609420326 -115 -6 18
2691 933 4 0.4238 -17.186815856841953 -17.358872993929193 -15.879163386769937 -17 -64 50
2690 933 4 0.4238 -16.693670357395384 -18.812632874266374 -16.43595489302776 -10 17 59
2714 941 4 0.4238 -17.66739941655564 -16.87640130285245 -17.826418054489203 -47 -47 2
3311 1140 4 0.4238 -15.419019030427076 -16.662274219549342 -16.898503893395844 -218 26 -20
727 279 3 -0.8476 -18.519179770173512 -16.363064077644804 -14.810218909127844 12 18 4
3310 1140 3 -0.8476 -14.607016155767983 -16.0795172296466 -16.93084033396493 68 -1 0
5821 1977 3 -0.8476 -19.012045516422145 -19.20808627712925 -14.916039066587023 -37 27 18
5823 1977 4 0.4238 -18.74786009231272 -18.256724682527395 -14.757552557103875 -17 30 73
3558 1222 4 0.4238 -14.393954295832536 -14.317428932228365 -19.156115212123126 48 0 456
728 279 4 0.4238 -18.952784867875632 -15.820076629409007 -15.529351228919687 7 -37 32
3925 1345 3 -0.8476 -19.64578603523954 -14.478889342227992 -16.506077409861568 25 0 1
3312 1140 4 0.4238 -14.377300862057762 -15.880502812287231 -17.88353344934329 -9 3 0
5822 1977 4 0.4238 -19.69454228391487 -19.247333069498126 -15.645874129896107 -42 -95 41
281 130 4 0.4238 -19.61110761851921 -15.828809132286581 -19.521152817330798 -12 -100 -114
3556 1222 3 -0.8476 -14.224691613637185 -15.245590664556522 -19.487576774044804 -30 0 -2
623 244 4 0.4238 -13.89903055756286 -18.577264854602 -14.842078553973256 0 26 84
2667 925 4 0.4238 -13.92586603512547 -14.946748660362015 -15.75828104330378 -16 152 -15
624 244 4 0.4238 -13.517667154599561 -17.78362791810015 -16.217334551685436 0 -39 -9
5413 1841 3 -0.8476 -9.4809571918437 -16.251210183113933 -14.494080296731106 14 -11 0
5415 1841 4 0.4238 -9.687287541661505 -15.458604367156845 -15.0678438325123 -46 -19 0
5689 1933 3 -0.8476 -11.50205737676558 -14.993375709143924 -18.88319319449127 -10 0 -4
5690 1933 4 0.4238 -12.483868561017765 -14.88322677451178 -19.03783743842044 -42 -5 16
622 244 3 -0.8476 -13.18447100078994 -18.42307345490378 -15.524449358104597 0 -9 -58
1300 470 3 -0.8476 -10.71615747565332 -14.283588603627464 -16.101542900034957 0 -21 -4
5691 1933 4 0.4238 -11.331716845571568 -15.131236255880962 -17.907499042686304 22 175 -16
5414 1841 4 0.4238 -8.83380740383355 -16.847307166674252 -14.969334673198698 8 31 0
2665 925 3 -0.8476 -13.401511897801498 -14.428482629104861 -15.082667924791432 3 20 4
1301 470 4 0.4238 -11.669247736101369 -14.28872087880131 -15.798900150539229 0 119 -11
5928 2012 4 0.4238 -9.960262475637684 -19.75839300551463 -14.538183163611103 1 23 136
4263 1457 4 0.4238 -8.546147761555035 -19.160585661427426 -15.976773496854435 26 31 0
440 183 4 0.4238 -7.824130683540322 -16.53111719717553 -16.489884823092346 -20 200 -81
441 183 4 0.4238 -6.850196144952304 -17.841630926130907 -16.515021511751677 23 -18 -4
439 183 3 -0.8476 -7.730483551768246 -17.484425743311753 -16.202772022441703 0 -61 3
2581 897 3 -0.8476 -4.829209672070945 -17.786486001581913 -16.692805109228146 -28 73 0
2583 897 4 0.4238 -4.724050190287828 -17.16984357981758 -15.912616906724041 -30 -31 -5
2582 897 4 0.4238 -3.9797285728370437 -17.804726872862354 -17.22010879299642 74 90 -16
1740 616 4 0.4238 -5.687012601977251 -15.984030631964542 -17.930384838361316 -1 76 79
1738 616 3 -0.8476 -6.530899718932817 -15.542531099926583 -18.23523385301637 -1 39 -8
1739 616 4 0.4238 -6.33208160943202 -14.942700616932925 -19.010266624631512 -1 -8 43
2013 707 4 0.4238 -5.00760136680588 -15.378800567414821 -14.879889811716616 0 -9 0
1535 548 4 0.4238 -3.2930559957887584 -19.542904428363492 -16.65937620073474 -5 -24 -98
2011 707 3 -0.8476 -4.911342206579131 -16.14263656413435 -14.241698013963884 0 5 0
1704 604 4 0.4238 -6.196836902490441 -14.318503102565593 -16.700621493488853 1 0 -36
856 322 3 -0.8476 -2.3260276574085075 -17.65106653952548 -17.31291945785598 0 -91 0
857 322 4 0.4238 -1.8688131921736018 -17.927653778540627 -18.15817353254165 0 52 0
858 322 4 0.4238 -1.9209815716068919 -16.80038003028645 -16.97785202422879 0 -25 0
2004 704 4 0.4238 -0.13956335292658634 -15.52053605936099 -16.771071969192935 0 -14 11
2002 704 3 -0.8476 -1.0952892323268473 -15.350682764743516 -17.011359191555915 0 12 103
5945 2018 4 0.4238 1.4370215289508959 -16.069169753127905 -15.267467060630686 1 2 0
5265 1791 4 0.4238 -0.6832223922503913 -19.082926046877596 -19.56881127387837 0 37 -32
5944 2018 3 -0.8476 1.5105551962739485 -15.588105575508687 -16.141063822934143 1 -1 14
5614 1908 3 -0.8476 0.7160029186314832 -19.23677227820114 -18.5126416261204 -1 6 6
5946 2018 4 0.4238 2.388695186239133 -15.111857460883643 -16.1864323847323 1 3 -15
5615 1908 4 0.4238 1.665055353437515 -19.547994789641642 -18.46324460448919 -1 2 -55
2003 704 4 0.4238 -1.318669019395991 -14.392466926280992 -16.83268657552984 0 33 -48
3074 1061 4 0.4238 2.3052612824414895 -17.727643319678783 -16.81588057020689 0 -79 -12
5263 1791 3 -0.8476 -1.6533746075843228 -18.990393228168973 -19.79295941617364 0 70 -55
5616 1908 4 0.4238 0.18794994295515427 -19.65911995392133 -17.77590385611728 -1 7 -6
3073 1061 3 -0.8476 3.286700053044791 -17.91232103290421 -16.867576335589796 0 55 1
1426 512 3 -0.8476 6.160380448159108 -16.641175635923993 -19.36760588486568 0 -23 0
2867 992 4 0.4238 6.1735482990568356 -15.212699137750691 -16.160863723024452 0 25 55
3082 1064 3 -0.8476 5.888378293600881 -17.36138827421426 -15.5955851623498 0 -10 14
3083 1064 4 0.4238 5.022563118835233 -17.409614811301196 -16.093620214479436 0 -208 -92
3686 1265 4 0.4238 6.704092406369339 -18.882741695227146 -19.255746767996634 0 25 -47
1572 560 4 0.4238 7.499359724329933 -17.423768339390794 -16.303463757426734 0 7 60
3075 1061 4 0.4238 3.4585773742684323 -18.60869191249603 -17.564373870704603 0 -230 54
4184 1431 4 0.4238 7.404288307525199 -14.579108290209133 -18.667242760330872 0 0 79
3084 1064 4 0.4238 5.708804878582528 -17.151662720492475 -14.634455931785668 0 -143 -19
1446 518 4 0.4238 3.2737763734156524 -16.703578535438417 -18.571022515727208 0 -31 -36
2866 992 3 -0.8476 6.003308805587616 -14.282288276454844 -15.836280318051113 0 38 -54
1444 518 3 -0.8476 3.300108451953602 -16.53140611188497 -19.555737339947928 0 -34 -39
1427 512 4 0.4238 5.16326884625099 -16.630579170554743 -19.44281688301087 0 28 -40
1570 560 3 -0.8476 8.37562098457867 -17.37744923896632 -16.783068570292105 0 -14 -53
1571 560 4 0.4238 8.21589637913069 -17.184924996291265 -17.751274373972358 0 24 -201
2872 994 3 -0.8476 9.904866498803418 -14.77632943066192 -16.19151712111011 -4 0 -71
2874 994 4 0.4238 10.847554993331837 -14.877239071826285 -16.509569114113493 -21 0 1
4045 1385 3 -0.8476 12.613938492093375 -14.836116230089996 -16.910248702328175 0 8 27
2873 994 4 0.4238 9.441770532410233 -15.661557477418015 -16.235266480012292 -18 0 7
2839 983 3 -0.8476 10.534007291859309 -19.133731016133982 -16.420147955795404 22 -3 33
2841 983 4 0.4238 9.780882909375885 -18.476017444449575 -16.405432469319237 37 -55 -38
4047 1385 4 0.4238 12.751565753209569 -15.03410737757868 -17.880743102488115 0 21 -18
4046 1385 4 0.4238 13.432192261861912 -15.096358829966123 -16.397672131104965 0 3 -11
1583 564 4 0.4238 11.929980933553992 -18.99057160252172 -18.463147043700072 2 109 -54
1542 550 4 0.4238 11.146975622839241 -19.29060019825492 -14.813159561389533 -20 -26 -16
1582 564 3 -0.8476 12.83658942300064 -19.164912604530933 -18.84742087932185 0 -7 74
598 236 3 -0.8476 8.92083320906521 -15.787086121421018 -19.421204958899498 0 0 18
1584 564 4 0.4238 13.361454456799079 -18.313862702881988 -18.862615586953584 -6 39 19
599 236 4 0.4238 9.624027277907516 -15.09422244982732 -19.261648624126437 0 0 -4
1876 662 3 -0.8476 12.318058198147188 -15.111333039260161 -19.689227132748503 -46 -56 -1
2840 983 4 0.4238 10.452596714317584 -19.715622650095526 -17.22932930495068 -69 118 35
1170 426 4 0.4238 16.095660797830135 -18.255159770686607 -16.565542364360418 244 -68 -29
1168 426 3 -0.8476 16.368272864645007 -19.145564430439865 -16.201038807589587 145 33 -10
3435 1181 4 0.4238 15.969142833150853 -16.148983974137074 -15.995507316331771 8 0 -114
3433 1181 3 -0.8476 16.48058823707277 -16.305767893201196 -16.840399279111793 13 0 -17
3434 1181 4 0.4238 16.248944920057205 -15.596939964237194 -17.506660751435387 -23 0 48
1377 495 4 0.4238 17.032285897547474 -17.658278948194333 -18.35074188139739 77 15 112
1169 426 4 0.4238 16.478581719217697 -19.0801419706143 -15.209296536399064 174 -124 59
1375 495 3 -0.8476 16.876234964474946 -17.994867271614286 -19.279373524902176 22 -47 -101
1376 495 4 0.4238 17.7545573356721 -18.19674425705837 -19.712727802475857 171 100 -51
3927 1345 4 0.4238 19.171049200826694 -14.453172835201306 -17.063566710797765 -87 0 1
2377 829 3 -0.8476 14.921894755824363 -15.868417090017653 -14.617789810874594 56 -4 2
282 130 4 0.4238 18.779256325098128 -14.805683867295128 -19.31704560260334 28 -93 85
582 230 4 0.4238 19.220066991787323 -19.80138290499885 -18.087688504069092 31 -79 -1
581 230 4 0.4238 17.937159680138596 -19.730228449467873 -17.079862649197874 19 123 0
3787 1299 3 -0.8476 15.336055698293318 -14.202296959667185 -18.649409290819687 44 -15 7
2378 829 4 0.4238 14.215860193311038 -15.234387407872065 -14.30231776507067 50 -30 32
4349 1486 4 0.4238 -18.33445618920569 -14.111838037695483 -18.260695644782142 74 54 2
4348 1486 3 -0.8476 -18.06307192999207 -13.227647773446291 -18.64090373049097 -26 -8 16
5579 1896 4 0.4238 -15.34511091526708 -10.10858306811048 -16.234865642652455 105 86 77
3415 1175 3 -0.8476 -17.568112393536865 -11.625188960253825 -16.149211690123163 -1 34 49
5578 1896 3 -0.8476 -16.15665453183994 -9.535897219775663 -16.350744511876247 24 -18 22
5580 1896 4 0.4238 -16.971357217598722 -10.114884758348968 -16.382885069770346 39 57 21
3898 1336 3 -0.8476 -15.172918095261814 -12.679204157630194 -18.259702728549996 51 0 21
3416 1175 4 0.4238 -17.672833851225242 -12.281630132473568 -16.896284928921602 98 -20 -3
3899 1336 4 0.4238 -16.137550721834916 -12.82902201290818 -18.042818528395507 -84 0 111
4350 1486 4 0.4238 -18.10597720873258 -13.266790124526004 -19.639215821907936 79 35 8
3417 1175 4 0.4238 -18.366124068273837 -11.673741673451403 -15.548528722508797 -63 44 -84
6044 2051 4 0.4238 -18.483811923569917 -9.658345323559065 -17.93597348304183 -139 0 -38
715 275 3 -0.8476 -17.93439837379608 -10.405139137875052 -19.27372071602408 0 31 49
6043 2051 3 -0.8476 -18.909200631526488 -8.946445583076324 -17.37718618550795 41 0 -7
717 275 4 0.4238 -17.941556898865063 -11.363515063284963 -18.988301115377066 2 91 -28
3900 1336 4 0.4238 -14.72615759354198 -12.219703444594455 -17.492066775922964 80 0 -21
4376 1495 4 0.4238 -14.594908713453613 -11.342765633035755 -19.616106947724735 -48 55 -54
3926 1345 4 0.4238 -19.596084437134678 -13.653241021123538 -15.944085748507925 -25 0 1
1554 554 4 0.4238 -19.619825484010235 -9.661562548182474 -19.754637369307403 21 0 -5
1674 594 4 0.4238 -16.18598550764345 -11.174126217125625 -14.426206911453699 -1 -167 0
2666 925 4 0.4238 -14.02360397036607 -14.047913465975746 -14.398439474362505 -84 24 -174
3491 1200 4 0.4238 -13.922930591571992 -11.192516101369344 -15.36332641836073 47 -49 28
3490 1200 3 -0.8476 -13.753244620996835 -11.017857390325135 -16.333224424897473 -59 -36 -33
1302 470 4 0.4238 -10.46852052435196 -13.36429077144283 -16.407430873104538 0 19 -10
3492 1200 4 0.4238 -12.891333927905865 -10.521467173754342 -16.4366990883513 -95 7 23
1881 663 4 0.4238 -10.830801931539039 -10.592144190149941 -16.651109282873374 96 150 -8
1879 663 3 -0.8476 -11.173034166461449 -9.792273968957694 -16.15807302588747 98 -113 50
814 308 3 -0.8476 -10.108931594261822 -12.017286420510978 -17.532663581989933 -1 2 -49
815 308 4 0.4238 -10.247523080949005 -12.042966825022496 -18.522680211683557 -41 5 -25
3963 1357 4 0.4238 -11.286666304014402 -9.43401976845953 -14.281457232901861 31 115 2
1880 663 4 0.4238 -11.549151667568953 -9.13433911643814 -16.810497249001358 -21 12 -8
748 286 3 -0.8476 -12.302409372082277 -8.940790216359728 -18.635830431665152 -246 -30 67
816 308 4 0.4238 -9.134073416190047 -11.914167926767014 -17.335133498350846 -22 2 5
3233 1114 4 0.4238 -9.147562530876828 -9.107965179328918 -15.731488214612527 -32 -2 -79
4377 1495 4 0.4238 -13.3181732378231 -10.393720763414024 -19.24747860170857 -74 38 -22
4697 1602 4 0.4238 -10.89977952261623 -13.666593312327185 -19.613022046961017 42 20 245
750 286 4 0.4238 -12.04494350264203 -8.76625751234645 -19.586225139619312 88 -56 -43
1702 604 3 -0.8476 -5.592534628631467 -14.022827406360006 -15.960760250719071 1 -3 7
3234 1114 4 0.4238 -8.401812382433436 -9.847249157680505 -14.480911303204321 71 -37 -6
3232 1114 3 -0.8476 -8.32233637019061 -9.594876643893759 -15.44527225027282 -21 4 28
4845 1651 4 0.4238 -7.967082467378199 -9.51278450158622 -18.53222062400434 0 0 6
2946 1018 4 0.4238 -7.744420898581406 -10.771135428829048 -16.62072226686833 46 77 2
1703 604 4 0.4238 -5.2685701522038855 -13.095001054204234 -16.14565295362697 1 31 -10
2945 1018 4 0.4238 -6.554569604536011 -11.522221353166548 -17.449426275153954 57 38 0
2944 1018 3 -0.8476 -7.54417609079233 -11.402284011887911 -17.370091023363226 -33 15 0
3852 1320 4 0.4238 -4.082070252939843 -11.642257959644974 -17.17564667187229 0 9 -69
3851 1320 4 0.4238 -4.623073075613625 -11.208935601805617 -15.69707458699746 0 62 33
3850 1320 3 -0.8476 -4.893108696696267 -11.547781612484382 -16.5983319298382 0 -29 29
4440 1516 4 0.4238 -6.652216889968999 -8.892085454097478 -15.544557487278244 -9 0 -80
419 176 4 0.4238 -7.9704411302367495 -11.774041668172448 -19.23390495544443 0 16 -5
745 285 3 -0.8476 -2.8968368489419247 -12.836132315560493 -14.317806427474496 0 -12 40
4439 1516 4 0.4238 -5.042652280808437 -8.991089945594108 -15.287406992989084 4 -2 -46
6051 2053 4 0.4238 -7.0586185421137655 -13.621742777227686 -14.663217419942438 13 -18 -82
4415 1508 4 0.4238 -2.9839592560316675 -10.521358632184754 -18.855680329240126 0 -37 -25
4843 1651 3 -0.8476 -7.7860499802253225 -8.578618018878851 -18.83972709571919 0 0 21
4414 1508 3 -0.8476 -2.855524002620842 -11.46811213354772 -18.56044783974211 0 111 1
4416 1508 4 0.4238 -2.4708206300357864 -12.002644649410758 -19.31296250143846 0 -44 10
1412 507 4 0.4238 -1.7702510508224352 -12.106824560316404 -17.324965087022072 0 0 -66
2302 804 3 -0.8476 0.0862213143728333 -9.783324092788558 -15.7887369376328 2 0 97
1411 507 3 -0.8476 -1.1794152337741453 -12.6254092597717 -16.70691641448576 0 0 10
1413 507 4 0.4238 -0.2810060697277429 -12.188753770099996 -16.660085975205142 0 0 12
2304 804 4 0.4238 0.13304221323139592 -9.01302595098792 -15.152774174336574 -2 0 -52
2303 804 4 0.4238 0.22371449226421036 -10.637878192942292 -15.287904692185018 -3 0 118
746 285 4 0.4238 -2.308074692627483 -12.843073417712569 -15.126083647389635 0 -44 -13
2625 911 4 0.4238 1.4471571681186621 -10.113249868356537 -16.936696000501122 0 0 -31
2623 911 3 -0.8476 1.8899736443295256 -10.105691527360475 -17.833276727328773 0 0 -3
5939 2016 4 0.4238 -0.7578667516252973 -9.28635843534288 -17.24569953700262 0 -28 7
5938 2016 3 -0.8476 -1.297848127661811 -8.74766804321094 -17.892409183409477 0 -30 -50
5743 1951 3 -0.8476 2.6676929038846597 -12.542761149986173 -19.16517088482533 0 -1 -11
1852 654 3 -0.8476 0.9924650889510025 -12.212767899297043 -14.610005015849653 0 29 0
1854 654 4 0.4238 1.9355486623030314 -12.505705492289438 -14.767424709755604 0 13 0
2624 911 4 0.4238 2.449483509424184 -10.928171248897888 -17.935631682583292 0 0 14
5940 2016 4 0.4238 -0.8827852454006859 -8.80306323350899 -18.80051461003792 0 68 -8
5058 1722 4 0.4238 2.073685218686842 -9.307589891382644 -19.60436357516622 0 -27 -19
125 78 4 0.4238 0.5923104249070579 -11.490845939020367 -19.511417303796062 0 -174 -74
2868 992 4 0.4238 6.783720721438997 -13.700942134838476 -16.06648590738759 0 -122 -94
3056 1055 4 0.4238 4.362015579838132 -13.934716419577152 -15.235783503125683 -35 -105 29
3055 1055 3 -0.8476 3.436234232885265 -13.827908559172869 -14.873125231077314 -11 67 -67
5745 1951 4 0.4238 3.4289220227653034 -12.479667091086448 -18.519763630411607 0 -1 98
4183 1431 3 -0.8476 7.065878759577929 -13.645116375880912 -18.781867107790493 0 0 44
842 317 4 0.4238 5.388494242896841 -12.130995582747534 -17.29406788639934 0 -9 20
841 317 3 -0.8476 4.633347829362421 -11.570984703901294 -17.634863597893528 0 10 -35
843 317 4 0.4238 4.969418467743233 -10.654367602740438 -17.85135758267984 0 11 -61
3442 1184 3 -0.8476 6.264007875077477 -9.458492302827416 -18.047050615355644 0 0 -1
1872 660 4 0.4238 7.264193332260887 -11.947937783891293 -14.975298202579497 -2 -25 -67
3443 1184 4 0.4238 7.224548984155792 -9.415327086424789 -18.321820319138588 0 0 -118
5238 1782 4 0.4238 7.518815215698938 -12.879808887240467 -17.407717759952757 0 0 88
1073 394 4 0.4238 3.643819120992595 -8.670641748513281 -14.353711118065698 -14 0 33
3468 1192 4 0.4238 3.730466797186181 -11.868721002216507 -14.312720024308655 0 -76 -46
5236 1782 3 -0.8476 8.036649728016716 -12.776245779409741 -16.558528607320756 0 0 -37
468 192 4 0.4238 5.67055725517181 -8.794747744397855 -19.575520335297476 0 2 -109
3444 1184 4 0.4238 6.110279627243444 -8.84231151979945 -17.274593656168722 0 0 -53
4185 1431 4 0.4238 6.74647573525359 -13.519241843220001 -19.721089392775916 0 0 28
1870 660 3 -0.8476 6.884153452683812 -11.432210927440744 -14.207446820198035 -3 -22 121
4286 1465 4 0.4238 10.2111158869591 -14.12193335017146 -14.301182183708985 -3 -1 101
5361 1823 4 0.4238 8.50981174398118 -11.217364000885697 -16.244590183902385 0 6 119
5237 1782 4 0.4238 8.724600177474864 -13.499419280445903 -16.49733755971926 0 0 27
5360 1823 4 0.4238 9.971791222362002 -10.865362322639736 -15.60792911032176 0 -46 33
4410 1506 4 0.4238 12.045314321607448 -13.148991645223408 -17.34236045263854 47 -1 48
4409 1506 4 0.4238 11.063288391219999 -12.59628164450334 -18.524207846404547 26 -1 -25
5359 1823 3 -0.8476 9.166365190027705 -10.485330603374639 -16.062753079447038 0 -18 51
4408 1506 3 -0.8476 11.848301459874694 -12.375883254015871 -17.945261256467145 -24 -1 23
5421 1843 4 0.4238 13.01325606767065 -12.259230370977447 -19.131513453508184 44 0 -136
1076 395 4 0.4238 9.31779194635633 -9.083194784954676 -17.658665807183024 -41 -26 36
1990 700 3 -0.8476 13.71962403876932 -10.15303434018125 -16.852283756664008 114 42 59
4312 1474 3 -0.8476 9.933682934943485 -12.90530287316425 -19.493392557172758 -87 -40 -105
1991 700 4 0.4238 13.025697125228461 -10.606322321201416 -17.411743730777943 180 54 -6
336 148 4 0.4238 10.08689856278173 -8.89876877869998 -15.744159510640275 -19 14 116
3271 1127 3 -0.8476 11.267370808326094 -11.154127119358382 -14.382919217625462 0 48 14
1992 700 4 0.4238 13.837921972001466 -10.655722199311027 -15.99594820938829 57 6 65
3736 1282 3 -0.8476 14.129073161629256 -11.283545916701442 -14.510298483205313 0 -3 0
4313 1474 4 0.4238 9.24249160328836 -12.18474917954315 -19.438102872530738 159 -76 -20
3272 1127 4 0.4238 12.209711159756989 -11.111990112166895 -14.714911917127827 0 27 -32
1077 395 4 0.4238 9.737907957923042 -8.761003346911751 -19.203438264990343 10 67 -54
5419 1843 3 -0.8476 13.738385900532066 -12.285597809509024 -19.819620656990793 -35 0 -57
1075 395 3 -0.8476 9.112722204762877 -8.521916312407203 -18.460484396282972 33 10 -6
5924 2011 4 0.4238 19.101661472380936 -11.425872265012234 -15.946425096455194 53 75 -32
5923 2011 3 -0.8476 19.6018597689152 -12.088073606851127 -15.388489030855395 17 77 -3
3789 1299 4 0.4238 16.267408512475992 -13.906567500156358 -18.43697941580667 -7 -14 -73
3788 1299 4 0.4238 14.735136024273688 -13.404276929589779 -18.694800962962585 -30 -30 -8
1715 608 4 0.4238 15.226230532333005 -9.46859132280285 -17.421951562147733 -13 0 -66
3032 1047 4 0.4238 18.35113518561694 -12.301154249615475 -17.670230338105636 -106 0 -54
2688 932 4 0.4238 19.17588319525702 -9.622957744837521 -17.482874525194234 96 0 3
3031 1047 3 -0.8476 18.186117682401175 -13.161228379898674 -18.152974293377063 -20 0 -6
2686 932 3 -0.8476 18.512023623017146 -10.266137275050012 -17.101283110568065 3 0 -21
2687 932 4 0.4238 17.58853470954813 -9.90101370152424 -17.21898531056866 -71 0 0
3033 1047 4 0.4238 17.953305457481804 -12.96900971375585 -19.106310799659393 -110 0 -37
1714 608 3 -0.8476 15.984347617074555 -8.819988230363803 -17.489572202857214 18 0 52
5925 2011 4 0.4238 19.40677104108447 -11.924054450926674 -14.421515247164521 32 -10 -14
5169 1759 4 0.4238 19.48026584059764 -9.015480083885782 -15.686587148092151 -59 -1 -70
5168 1759 4 0.4238 -19.24568612788012 -8.324437349775867 -14.528375149029062 69 -1 8
3846 1318 4 0.4238 -15.79110952311518 -7.868198018733641 -16.164224860303243 -2 0 -86
6045 2051 4 0.4238 -18.402537364931465 -8.091041192661718 -17.484776507858236 10 0 100
75 61 4 0.4238 -16.56605173681331 -7.041886361300776 -17.348192752661422 -8 6 26
3844 1318 3 -0.8476 -15.450304975502041 -6.96063711574589 -15.918897549084924 -21 0 -7
4945 1685 3 -0.8476 -18.6250278034378 -4.457221489907786 -17.772313352349745 8 14 17
4947 1685 4 0.4238 -18.09144144190314 -5.296460709231236 -17.667608154823434 -12 20 10
73 61 3 -0.8476 -17.222964584328636 -6.648335499617295 -17.991297381868772 -19 -21 31
3845 1318 4 0.4238 -14.470124065889703 -6.9096989385870335 -16.110341281294406 -5 0 -80
74 61 4 0.4238 -17.2037562035249 -7.166552085321636 -18.84633117821147 -87 -28 41
2770 960 3 -0.8476 -16.458926045971328 -3.295996166940542 -19.012195791829463 10 0 -65
2230 780 3 -0.8476 -14.457786510348162 -5.6914539292612325 -19.07935642847924 0 29 -1
584 231 4 0.4238 -15.22279250145754 -4.693902427621194 -15.380761250029478 0 0 0
583 231 3 -0.8476 -14.87156971920918 -3.959137066372758 -14.800448472194685 0 0 0
2772 960 4 0.4238 -17.217658207711768 -3.79713686883219 -18.5960425507964 39 0 147
4946 1685 4 0.4238 -19.564482981494432 -4.619724326034673 -17.47062328498401 -10 4 103
2771 960 4 0.4238 -15.690419196042441 -3.263757116835507 -18.373166931146727 -92 0 34
2232 780 4 0.4238 -14.59859242618992 -4.729389150427262 -18.845678633273916 0 -28 68
5051 1720 4 0.4238 -18.950577772393626 -3.853355034648482 -19.54999871231187 -4 -1 -150
5233 1781 3 -0.8476 -14.303798803348826 -2.9040515812223973 -17.429428502987022 -49 0 9
2231 780 4 0.4238 -15.294648955386192 -6.062671496627302 -19.48167401575701 0 38 56
374 161 4 0.4238 -19.821395524538406 -4.1472686259073415 -14.34450573797832 -33 0 -57
749 286 4 0.4238 -12.634949643983324 -8.09443339287621 -18.219780211222847 116 109 -119
3218 1109 4 0.4238 -13.586134942007758 -6.053223443898012 -17.72268995934761 -23 1 75
2382 830 4 0.4238 -11.107295356570159 -5.837600169712252 -15.215409639251238 -36 -6 -116
2381 830 4 0.4238 -9.568047655645996 -6.161849490656621 -14.77699685205312 89 -29 16
2380 830 3 -0.8476 -10.217569586213086 -6.1612510190344105 -15.537340087886093 -2 6 -11
3219 1109 4 0.4238 -12.14231671016421 -6.0224645652495195 -16.96041093106865 -2 1 -108
3217 1109 3 -0.8476 -13.036041150665893 -6.469443724452936 -16.998702708967365 8 1 -1
4676 1595 4 0.4238 -9.456678234467526 -6.249529701608428 -16.986331355963742 0 13 37
5386 1832 3 -0.8476 -12.038092262068261 -4.06423158881592 -14.698715984562837 -9 0 93
4675 1595 3 -0.8476 -9.175625758150721 -5.991951489953406 -17.910811207586498 0 -2 6
5388 1832 4 0.4238 -12.908456581346588 -3.589370978918095 -14.568432400850156 6 0 -332
3019 1043 3 -0.8476 -9.298074384096784 -3.4727006852638875 -15.967042444455535 -22 -1 -13
3020 1043 4 0.4238 -9.733506518432753 -4.3399608457868775 -15.725672955855414 81 -1 -36
5387 1832 4 0.4238 -11.286550341893106 -3.4085358436773103 -14.626273238428508 -33 0 -116
2610 906 4 0.4238 -9.710418910537166 -5.586228871126881 -19.69790186298341 19 35 -34
4677 1595 4 0.4238 -8.644586702982178 -6.735547029576786 -18.317090916925554 0 5 10
5234 1781 4 0.4238 -13.885805735477048 -2.8903607561700224 -16.5210813773258 15 0 -18
3021 1043 4 0.4238 -8.46380455423016 -3.65231925107414 -16.488321491302916 45 -1 -64
4949 1686 4 0.4238 -4.029221175202764 -8.30396448817506 -19.53226179407397 -14 0 -115
4438 1516 3 -0.8476 -5.791302804123103 -8.383395778501983 -15.552416812195164 -16 0 -67
900 336 4 0.4238 -7.677787773178835 -4.392932539714313 -17.922410768236418 1 0 -16
3129 1079 4 0.4238 -6.332521849777566 -7.807405309474477 -18.431703336626214 47 0 -41
3128 1079 4 0.4238 -5.043578608241644 -7.602416769552358 -17.45025974695182 122 0 -62
4556 1555 4 0.4238 -6.649779554195816 -6.796461005377422 -15.19552131640136 0 0 -19
3127 1079 3 -0.8476 -5.431463508499031 -7.382396882606318 -18.345322070433635 -110 0 -25
4555 1555 3 -0.8476 -7.050363416866292 -5.89914656430282 -15.010155332813591 0 0 -20
5392 1834 3 -0.8476 -4.6759700462507485 -4.9288048541792 -18.717397717040647 0 -30 -68
5393 1834 4 0.4238 -3.827157061713714 -4.813353761947979 -18.20146400680047 0 -75 15
898 336 3 -0.8476 -6.884606641892154 -4.275803189416167 -17.32479515780432 1 0 -20
899 336 4 0.4238 -6.04772839576688 -4.4505077295595825 -17.84355632576082 1 0 1
5394 1834 4 0.4238 -4.97883678960064 -5.87961850729766 -18.652396165870854 0 -57 20
4557 1555 4 0.4238 -6.976164333422098 -5.325982921451424 -15.826230760370219 0 0 -57
1313 474 4 0.4238 -5.4856435436372655 -3.7854628200179183 -19.821733176446408 0 -8 6
3603 1237 4 0.4238 -2.973599076495454 -3.458311697334687 -14.845822181855448 -1 -24 -45
3432 1180 4 0.4238 -3.0129660580480664 -6.971012032577483 -15.795516448600319 39 12 -14
3430 1180 3 -0.8476 -2.8177898654934546 -6.828872969614384 -16.765930188081878 -27 -11 17
5604 1904 4 0.4238 1.533335997406362 -8.291709209672453 -17.6143128740842 0 0 62
1383 497 4 0.4238 -2.272464278341845 -5.301979004907076 -17.137948094631273 0 0 -3
3431 1180 4 0.4238 -2.325893494629281 -7.621335202652553 -17.126545723521414 -91 7 98
1381 497 3 -0.8476 -2.2881670382838593 -4.310218263224237 -17.26508614077022 0 0 1
1382 497 4 0.4238 -1.6627629640532071 -3.8807202557543623 -16.61362530591599 0 4 27
5603 1904 4 0.4238 0.7785959580877954 -7.335450442145717 -16.52685538072585 0 0 65
5602 1904 3 -0.8476 1.5025846743306415 -7.375182628450527 -17.21552231299213 0 0 -41
4230 1446 4 0.4238 0.5123769098027775 -6.102755430968024 -18.42801426183015 0 0 64
3562 1224 3 -0.8476 2.313229616600389 -4.1321385375016435 -15.587555775158002 1 0 -33
3563 1224 4 0.4238 2.561937761984671 -4.864374190217471 -14.953540436996985 1 0 179
4228 1446 3 -0.8476 0.4176965106340587 -5.3870731616559215 -19.119993164628003 0 0 22
3203 1104 4 0.4238 0.5733365869866299 -3.285398821716192 -15.621416408776271 0 0 15
4797 1635 4 0.4238 -1.3831366088767836 -3.4490557744573422 -18.672246147926984 0 0 24
409 173 3 -0.8476 0.29483824749822596 -7.458368919650471 -14.507525562938726 1 0 -24
1074 394 4 0.4238 2.6980263242054114 -8.019025322732274 -15.514529211413208 3 0 110
3202 1104 3 -0.8476 -0.34249022446494376 -2.931219623151025 -15.810673834594919 0 0 31
3564 1224 4 0.4238 2.5901620653215796 -4.38544602707368 -16.514456169329765 1 0 -5
411 173 4 0.4238 -0.5823768787380542 -7.088225410503089 -14.201768371561165 1 0 -35
3776 1295 4 0.4238 1.4179541905824036 -4.167152740699786 -19.770326253247926 0 -142 75
3320 1143 4 0.4238 3.018099041659468 -6.463185327782461 -17.893195768801263 0 0 14
5093 1734 4 0.4238 6.6857415395974265 -7.818518139470225 -14.872252817167487 -1 0 0
5092 1734 3 -0.8476 6.191247543310521 -7.611073035472184 -15.716315932327682 -1 0 0
5094 1734 4 0.4238 5.2081456376528825 -7.603551948184841 -15.533408406600223 -1 0 0
1072 394 3 -0.8476 3.4677461919837955 -7.850886337053159 -14.898687720633923 1 0 43
3319 1143 3 -0.8476 3.3287955661793904 -5.514585526548042 -17.953415555790958 0 0 39
3321 1143 4 0.4238 4.020121949623155 -5.435234563554256 -18.671587929379385 0 0 -101
1372 494 3 -0.8476 5.703173747986118 -4.90038026890203 -16.067988693794256 0 0 -110
1373 494 4 0.4238 4.861864614532671 -5.194049539619152 -16.521814686853887 0 0 -7
4760 1623 4 0.4238 7.584726093558784 -4.2489634225250965 -15.218887729697492 0 -125 25
3011 1040 4 0.4238 5.583941748263815 -3.309605870065514 -15.853972313730813 0 0 18
1374 494 4 0.4238 6.381293680741627 -5.633757024001293 -16.116081579099262 0 0 -66
1777 629 3 -0.8476 7.7781575859367305 -4.2552100458254065 -19.70304563253023 0 0 46
1778 629 4 0.4238 7.4672460656548765 -3.322373229064559 -19.520975451120645 0 0 -16
4759 1623 3 -0.8476 8.338506698963515 -4.880037881666901 -15.035694295154633 0 39 4
509 206 4 0.4238 8.257129777051876 -5.428720857173074 -18.400318117776635 0 0 -41
1013 374 4 0.4238 6.380460766500528 -5.420754036701346 -19.640979333651263 0 8 -38
4761 1623 4 0.4238 8.824708618757448 -5.074756148254821 -15.887570172559839 0 91 -25
1358 489 4 0.4238 13.027291531196807 -8.33821059510813 -17.447396458727802 0 0 7
686 265 4 0.4238 11.744074498965789 -7.846335133390923 -19.410250065895212 -22 13 52
335 148 4 0.4238 11.372821982454287 -8.249799055666063 -16.513487883749313 -23 31 6
1357 489 3 -0.8476 12.439494296195104 -7.627127295025677 -17.833214300009033 0 0 -5
510 206 4 0.4238 9.050448395324056 -6.838578031020595 -18.17766145314417 0 0 45
1359 489 4 0.4238 12.82392329560284 -6.727723365547834 -17.62515836899142 0 0 41
508 206 3 -0.8476 8.868724239108543 -5.934161410968913 -17.791645190720498 0 0 27
334 148 3 -0.8476 10.790066053613437 -8.18892933741664 -15.703123291197395 -40 38 -2
4972 1694 3 -0.8476 12.882716422136836 -4.68618594629467 -16.6787806070641 0 0 0
4973 1694 4 0.4238 13.2018420499419 -4.076771906614502 -15.95298904442713 0 0 0