LAMMPS data file via write_data, version 23 Jun 2022, timestep = 7500000

6042 atoms
4 atom types
4000 bonds
1 bond types
2000 angles
1 angle types

-19.730140408523727 19.730140408523727 xlo xhi
-19.730140408523727 19.730140408523727 ylo yhi
-19.730140408523727 19.730140408523727 zlo zhi

Masses

1 22.99
2 35.423
3 15.999
4 1.008

Bond Coeffs # harmonic

1 517.63 1

Angle Coeffs # harmonic

1 37.9505 109.47

Atoms # full

760 282 3 -0.8476 -15.935942479033212 -17.187432632098442 -17.178385808844425 71 -68 29
761 282 4 0.4238 -16.700989792589155 -17.828718280270785 -17.237179744452277 115 -79 37
762 282 4 0.4238 -15.131169339561316 -17.587564973428155 -17.616831840348816 -107 89 0
1900 662 3 -0.8476 -15.68436279203063 -16.92099091238247 -14.321223557923592 19 70 47
968 351 4 0.4238 -15.627174643189518 -15.597211305168734 -17.563465553268546 -10 -39 -3
967 351 3 -0.8476 -15.507525610105747 -14.695585635199059 -17.979103962214502 9 4 11
3349 1145 3 -0.8476 -17.921559978070164 -18.52209951255056 -18.50238670323912 -26 -5 0
3350 1145 4 0.4238 -17.572844948117226 -17.62768305319424 -18.78241712368632 -92 126 0
3174 1086 4 0.4238 -17.142116400393082 -15.232396271602413 -16.17199811013213 80 8 -19
3431 1172 4 0.4238 -16.072065792684825 -18.290546543321703 -13.564267201960151 29 40 19
1901 662 4 0.4238 -15.581091716536845 -17.08132880284532 -15.302868534275243 -48 53 -107
1902 662 4 0.4238 -15.065984808175065 -16.188598672963504 -14.036249292888009 -45 -18 -2
969 351 4 0.4238 -15.307009608008912 -14.801493226403762 -18.953053115843073 -73 6 -14
3172 1086 3 -0.8476 -18.096061496169916 -14.947608375351825 -16.07773856940942 17 -11 -7
3351 1145 4 0.4238 -18.28404206890687 -19.003323113084203 -19.300528674988964 88 -14 3
572 219 4 0.4238 -18.877452628585054 -14.843117911255817 -17.941133783743627 3 0 -2
571 219 3 -0.8476 -19.37604199154743 -14.298586240161875 -18.615592572085752 -50 0 -20
3173 1086 4 0.4238 -18.218369899498715 -14.475941199739674 -15.204485505728783 -13 -21 18
2390 825 4 0.4238 -17.146948501562488 -15.80684169781936 -13.21840914763147 87 28 -34
3430 1172 3 -0.8476 -16.39671696580503 -19.15799241797177 -13.18725352368594 14 42 3
5592 1892 4 0.4238 -19.596064162611388 -15.443217346151455 -15.497347711298662 118 21 0
5089 1725 3 -0.8476 -13.95179244664696 -14.985806448177433 -13.910910373880446 0 -37 -49
1533 539 4 0.4238 -13.503984412504849 -18.868758507792688 -13.921491093878348 0 5 10
4939 1675 3 -0.8476 -13.001899762475428 -19.016160509552616 -17.420948598688053 -16 -22 14
5421 1835 4 0.4238 -12.447530730587737 -17.48177581102108 -17.91484095973512 0 -45 63
5419 1835 3 -0.8476 -11.999149226091019 -16.59868147988874 -18.05303809579144 0 -62 -6
5420 1835 4 0.4238 -11.021091093182402 -16.688419210453105 -17.865023623233583 0 -47 -50
1256 447 4 0.4238 -9.751862975132692 -16.91852415284679 -16.463495626500645 -7 23 -146
1255 447 3 -0.8476 -9.369240316750949 -16.819891619784343 -17.382120442158573 2 -14 -83
1715 600 4 0.4238 -9.080031588105566 -18.325778364112672 -18.324835640296158 23 112 -60
1714 600 3 -0.8476 -9.005252204393452 -19.177497246613214 -18.843471369770036 24 -24 -35
2919 1001 4 0.4238 -12.63975950711091 -15.273995906436895 -17.02800215452901 0 -8 0
4078 1388 3 -0.8476 -10.277744380999538 -18.527947142242056 -14.394699183021247 48 -27 -104
2197 761 3 -0.8476 -9.56764075411857 -16.00584289311238 -14.38238377923813 0 70 0
4079 1388 4 0.4238 -10.093624741929364 -17.598266261560237 -14.075648329949967 48 -21 124
1257 447 4 0.4238 -8.844340726855943 -15.97037898675613 -17.43511829876359 -5 -15 38
4080 1388 4 0.4238 -9.433144331148295 -18.933974343933123 -14.743687286029688 -148 -56 -73
2198 761 4 0.4238 -10.155336313077855 -15.20098781342626 -14.464981530811004 0 98 0
4542 1542 4 0.4238 -9.101051450538318 -14.75518444132849 -19.033856042034365 -17 -10 -42
1531 539 3 -0.8476 -12.92479032291667 -19.09536237142891 -14.704552338585318 0 -39 14
1532 539 4 0.4238 -11.995665606892558 -18.764928882768313 -14.538597479790647 0 73 7
2917 1001 3 -0.8476 -12.686563604009939 -14.35146015261918 -16.644939257872412 0 33 0
4940 1675 4 0.4238 -12.911153150938581 -19.11881815903711 -16.43037982485369 66 72 28
2199 761 4 0.4238 -8.630103641078364 -15.760727065485865 -14.629250385424013 0 46 0
5091 1725 4 0.4238 -13.886901123178104 -14.16446539650887 -13.344175855970096 0 8 56
5090 1725 4 0.4238 -13.659499923270799 -14.771603393613763 -14.842941564181446 0 -33 -56
4941 1675 4 0.4238 -12.268561738786934 -19.520481755245314 -17.876882207798708 24 63 -30
2503 863 3 -0.8476 -8.225564498382582 -14.427005773455365 -17.49858861714939 0 0 50
4951 1679 3 -0.8476 -4.96618751676758 -17.746460939362628 -16.72364069332909 12 0 0
4952 1679 4 0.4238 -4.651542247864613 -18.339965001698104 -15.982863189939591 -50 0 2
4953 1679 4 0.4238 -5.6254519845785556 -18.241146540059802 -17.289906125072857 19 0 49
2621 902 4 0.4238 -4.683717891350022 -15.899930135546278 -16.05518145998072 19 0 -20
2620 902 3 -0.8476 -4.453146320354091 -15.045607635109048 -15.58938125008833 4 0 -87
3106 1064 3 -0.8476 -6.802262259731712 -15.63807908210516 -13.886687101255694 51 -39 -13
3107 1064 4 0.4238 -6.137407294036514 -15.418505976858585 -14.60065939780692 -7 -81 -65
4740 1608 4 0.4238 -4.8172318786199 -18.837991618062546 -13.565452352519173 0 55 0
2505 863 4 0.4238 -7.477645474090755 -14.748079427992945 -18.079560974667793 0 0 77
3331 1139 3 -0.8476 -6.268915816141812 -15.137770909441947 -19.316480994876045 0 12 36
3332 1139 4 0.4238 -5.646591221620653 -15.916838520800155 -19.240547799095776 -22 80 0
516 200 4 0.4238 -3.3251988040084806 -15.232814214663629 -13.937982802152533 0 11 67
2622 902 4 0.4238 -3.5494316554485525 -14.737359792339934 -15.886505942900493 -37 0 88
4738 1608 3 -0.8476 -4.326462259487387 -19.152384079019352 -14.378042413454077 0 -12 0
3108 1064 4 0.4238 -6.563143419794914 -16.513379827095964 -13.466363720428392 -45 -70 -68
4739 1608 4 0.4238 -3.3437326577931112 -19.15666787840519 -14.193044578397487 0 6 0
3823 1303 3 -0.8476 -8.081539694731251 -19.67646679521715 -15.531305909644091 0 -4 0
2703 929 4 0.4238 -7.448971572303263 -19.554566219316246 -18.28778930071328 67 42 -65
3824 1303 4 0.4238 -7.531415150615723 -19.44569284658264 -16.333868321347584 0 -31 0
866 317 4 0.4238 -2.7712069388866216 -18.155732054339765 -19.592850634604908 0 -15 0
3987 1357 4 0.4238 -1.32277975519825 -18.009955944382376 -17.682690931506496 0 100 2
3985 1357 3 -0.8476 -0.7186944630290433 -17.30491714680364 -17.31120570622471 0 -27 54
3943 1343 3 -0.8476 2.5684401693323093 -15.368245774780197 -17.700215052431066 0 0 22
5309 1798 4 0.4238 1.0548263598991254 -17.525147880739617 -13.98946206222417 1 -4 0
5308 1798 3 -0.8476 0.5196049141983355 -17.829564768006126 -14.777414087021398 1 1 0
3071 1052 4 0.4238 0.050172875809950626 -17.020181659491204 -18.82347505861181 0 7 122
3986 1357 4 0.4238 -0.28582049483772326 -17.64329425734578 -16.475669307774684 0 81 -60
5310 1798 4 0.4238 0.8087584759712657 -18.749748083795335 -15.04133251590187 1 -2 0
1633 573 3 -0.8476 0.6694586722952289 -14.663897410625616 -15.514677346943838 27 3 0
1634 573 4 0.4238 1.5546630736861695 -14.887206118604965 -15.922778828106606 -1 8 0
4693 1593 3 -0.8476 -1.6409898820140327 -14.60599383258353 -17.02052965561981 -36 43 -74
4695 1593 4 0.4238 -1.7347440916033066 -15.592348478526906 -17.155861392600283 77 -7 25
1635 573 4 0.4238 0.24836754887230356 -15.496796053987822 -15.155563958578862 -16 -21 0
1391 492 4 0.4238 -0.9853991187702508 -18.80931339627222 -14.026066851224689 0 -28 -34
1147 411 3 -0.8476 -1.6761007810713455 -19.516099631812928 -18.626413576292855 16 -34 18
3944 1343 4 0.4238 2.1150584901370384 -16.008961955951953 -18.319834162062453 0 0 -38
1390 492 3 -0.8476 -1.7476961631435344 -19.134892827531786 -13.466690381918944 0 18 48
3945 1343 4 0.4238 2.296342664427689 -14.433703443949884 -17.929548123606267 0 0 103
4694 1593 4 0.4238 -0.7081193145343394 -14.396992704427355 -16.72715095635331 39 -3 24
2131 739 3 -0.8476 2.6990094971686487 -18.94444258449988 -19.70671882292344 -2 -76 10
3070 1052 3 -0.8476 0.5353647574624845 -17.072118935053112 -19.696339692108303 0 -3 42
3072 1052 4 0.4238 1.2964996540811622 -17.71581937528123 -19.616813254909378 0 -6 19
3701 1262 4 0.4238 4.197735447245133 -15.164296750709973 -17.28904189997121 0 0 43
3700 1262 3 -0.8476 5.1773784810924255 -14.96398400147506 -17.275836206515006 0 -27 14
3702 1262 4 0.4238 5.596982561057031 -15.296439359790835 -18.120469797682613 0 -47 57
2462 849 4 0.4238 5.85830547028023 -18.89859448878547 -17.72316552725457 112 -70 -39
2461 849 3 -0.8476 4.888759885480682 -18.93677855423136 -17.965081561483817 49 24 -92
2463 849 4 0.4238 4.343197200290528 -19.062675107041176 -17.136521700379124 33 11 -52
3752 1279 4 0.4238 4.827684259358102 -18.73311631588453 -13.712853670459717 0 19 -61
5689 1925 3 -0.8476 7.731496211976005 -15.413133419567757 -15.790642347246255 0 0 -43
5691 1925 4 0.4238 6.8708782574421585 -15.20557240660951 -16.25567478395262 0 0 52
1621 569 3 -0.8476 7.695278668441686 -18.81900961787706 -17.649863778260205 22 -41 -8
4219 1435 3 -0.8476 8.275331024579991 -17.761420193357626 -13.992335174324882 0 -2 0
1302 462 4 0.4238 4.092439282237766 -14.38885510754753 -14.276424835621485 0 -3 0
5690 1925 4 0.4238 7.983103674965872 -14.647967506489369 -15.198008528774375 0 0 20
2133 739 4 0.4238 3.466550249588406 -18.775602158381233 -19.088354735086693 1 -55 86
4220 1435 4 0.4238 7.915737537236585 -17.16410588740461 -14.709209361335077 0 -1 0
1623 569 4 0.4238 8.36514850317331 -18.266866499558308 -17.15346341571781 100 3 -38
1647 577 4 0.4238 7.071616626850199 -14.502259277474565 -19.2562720750854 0 63 -28
1622 569 4 0.4238 8.160147097504456 -19.58036251652035 -18.101793204588176 -108 -38 1
2290 792 3 -0.8476 3.984372894953379 -19.703766288689852 -15.483317701549757 0 20 29
1645 577 3 -0.8476 6.458003995523976 -15.213350335115415 -19.599534450071626 0 13 32
4221 1435 4 0.4238 8.375137683901686 -18.689602838513785 -14.350826910431289 0 -7 6
1646 577 4 0.4238 6.961314794444195 -16.072700665901355 -19.690062173321266 0 -54 -7
5454 1846 4 0.4238 8.63535761266075 -17.631742140229452 -19.224889197417586 0 -34 -36
1028 371 4 0.4238 9.117612766088678 -16.35160184442563 -16.292561867395825 0 5 -27
1029 371 4 0.4238 10.656925105562403 -16.51828163769355 -16.811563576980664 0 29 43
1027 371 3 -0.8476 9.811668886633155 -17.005869585816672 -16.592930290859933 0 -18 -2
5692 1926 3 -0.8476 11.82789675481198 -18.07247379696779 -14.144182113235914 0 5 -6
60 48 4 0.4238 12.015456977290196 -17.96920211956196 -17.855026945532902 0 0 139
431 172 4 0.4238 13.42162369866933 -16.62358562495994 -16.339765341599993 1 -22 -44
430 172 3 -0.8476 12.64731048086509 -16.386669684218173 -16.92654461484786 -16 -14 18
5694 1926 4 0.4238 11.120923924364549 -18.151319423239674 -14.847014096616693 0 95 19
946 344 3 -0.8476 12.536527467160836 -15.01623039847871 -14.1076990621247 -1 -7 -1
432 172 4 0.4238 12.922021729941743 -15.670221337818223 -17.567821085340572 36 -25 -31
947 344 4 0.4238 12.221276440414758 -14.37777511772434 -14.809833582885863 -1 106 -6
58 48 3 -0.8476 11.910097092717566 -18.756297556490768 -18.46279344329573 0 -1 2
5693 1926 4 0.4238 12.151523883084907 -17.127251798314962 -14.101510427469021 -3 -173 -31
59 48 4 0.4238 12.80760959325297 -19.15591949786301 -18.649270357087243 0 -13 108
948 344 4 0.4238 13.327595882986195 -14.62788855940098 -13.635045287435991 -1 -6 -91
5753 1946 4 0.4238 11.431588269155425 -17.488083506643584 -19.65136277048171 4 34 -105
4316 1467 4 0.4238 10.851394680051188 -14.899981889671492 -19.120538552027465 -1 -52 52
5991 2025 4 0.4238 13.874524291283365 -18.67087197324224 -13.390142348720314 51 -2 1
5876 1987 4 0.4238 10.451035146086795 -19.693542982980677 -18.317645572244558 0 -17 -63
1324 470 3 -0.8476 14.933737049754065 -17.871748494413367 -19.176172051013253 105 16 -20
1326 470 4 0.4238 15.35284952910081 -17.16403738154904 -18.60741029834114 154 -78 6
502 196 3 -0.8476 14.432480467204815 -14.520906531109132 -18.51144859885802 0 -28 58
1325 470 4 0.4238 15.06838875742741 -18.765810436633913 -18.74894490634366 -108 55 -27
4811 1632 4 0.4238 18.911072341876995 -19.101775009491575 -14.514436941016507 2 -119 -34
1887 657 4 0.4238 15.711558112744763 -16.83934084518359 -16.319875385659124 -5 -26 -32
4812 1632 4 0.4238 19.0528795475041 -17.475179479453214 -14.540973781930694 -22 45 -72
4810 1632 3 -0.8476 18.989097590743725 -18.279680692496143 -13.950457327681583 -8 22 -11
5590 1892 3 -0.8476 19.010202817070322 -15.73266519439755 -15.065050423771751 -21 71 0
1885 657 3 -0.8476 14.903243588648888 -17.167718484123807 -15.831208045167536 -27 8 -88
1886 657 4 0.4238 14.89279884663632 -16.78333059032 -14.908095440894979 14 125 -57
5351 1812 4 0.4238 17.197697160926932 -16.009122466918264 -18.973051658629334 -53 -108 80
5350 1812 3 -0.8476 16.74750488297894 -15.692682890487312 -18.138070853843544 -34 18 -2
5591 1892 4 0.4238 18.48897204674564 -14.926801328973472 -14.784154570643942 27 -74 0
4918 1668 3 -0.8476 15.601379926333378 -15.449179919192673 -14.005834400415912 0 18 -17
4920 1668 4 0.4238 16.075910025274236 -14.593611331579059 -14.212773842103124 0 46 42
5352 1812 4 0.4238 17.41407248643684 -15.227010065252278 -17.55597424058722 -21 27 44
503 196 4 0.4238 15.322769919963148 -14.959516244886869 -18.388948588586583 0 -94 104
5989 2025 3 -0.8476 14.789372933772263 -19.072487080195575 -13.432062261062221 44 -3 1
2436 840 4 0.4238 19.178683230094794 -15.29924304988213 -19.65086745295512 -73 -16 102
3158 1081 4 0.4238 -17.30321734064572 -11.871104455973983 -15.685764578678514 14 3 -105
3157 1081 3 -0.8476 -17.990405382721217 -11.180023618410258 -15.46175452812891 0 -15 5
3159 1081 4 0.4238 -18.05979694004544 -10.52330536847821 -16.212691682434134 -15 -2 36
2426 837 4 0.4238 -15.698724523763298 -13.53225811878305 -16.573757140117827 0 0 -49
2425 837 3 -0.8476 -15.642570135315337 -12.856740439156777 -15.838554734792709 0 0 54
2427 837 4 0.4238 -15.089027761958558 -12.08061744035281 -16.14058777733368 0 0 -16
340 142 3 -0.8476 -18.732588707982067 -9.099885735202903 -17.39791557707551 13 53 -4
95 60 4 0.4238 -19.04819351441867 -10.705629916310157 -14.4636631319859 29 3 0
3561 1215 4 0.4238 -15.410526080973176 -9.671198891288256 -19.441591084376945 31 0 28
5497 1861 3 -0.8476 -14.827366489416528 -9.135329681762487 -14.595360760066592 0 0 65
5499 1861 4 0.4238 -14.22704435288381 -9.726024966329593 -15.134519794234743 0 0 -39
5651 1912 4 0.4238 -16.878399820557323 -11.003675826341338 -13.897247212527617 0 1 0
5652 1912 4 0.4238 -16.175843219120384 -12.472903844116583 -13.777206537073408 0 1 0
3888 1324 4 0.4238 -19.396115146565975 -10.747045533765947 -17.927854015851207 -141 11 12
342 142 4 0.4238 -18.108985352378646 -8.793267564087698 -18.117015710883226 -4 1 -17
573 219 4 0.4238 -19.336401318850385 -13.332788441981991 -18.359341661497464 -220 0 1
3886 1324 3 -0.8476 -19.56690536395519 -11.543544008262547 -18.50787204369129 0 -17 -16
5650 1912 3 -0.8476 -16.401958668100963 -11.633196632795018 -13.28348198527398 0 1 0
94 60 3 -0.8476 -19.7290188895326 -10.532415770899092 -13.75199345044172 10 10 0
5498 1861 4 0.4238 -15.332959049402628 -8.526715983595503 -15.206888051361938 0 0 31
2918 1001 4 0.4238 -12.760675751936509 -13.685643132730778 -17.387364403104005 0 161 0
2754 946 4 0.4238 -13.861508936614651 -10.912425713651805 -17.988908431945735 0 -8 -34
2752 946 3 -0.8476 -13.965629067493238 -10.837756378323865 -16.997150273558795 0 -15 -13
1347 477 4 0.4238 -11.46977962379629 -13.491563755269283 -15.924358494033756 0 -79 1
1345 477 3 -0.8476 -10.739956168912137 -12.916110212345215 -15.555290765295673 0 1 -45
1346 477 4 0.4238 -10.851836032422808 -11.980410748861576 -15.889879222751881 0 -3 -81
3139 1075 3 -0.8476 -11.291810835934234 -10.023505785640799 -16.46508265709703 -7 -2 -15
2753 946 4 0.4238 -13.091797220275161 -10.573106257370428 -16.589253920335647 0 38 5
3140 1075 4 0.4238 -10.988598236259385 -9.916101671004467 -17.411933498845382 -73 -26 -30
3141 1075 4 0.4238 -11.256414046255022 -9.138259756387377 -16.00130840661527 36 -57 -29
5070 1718 4 0.4238 -10.38577023617831 -12.56314024030654 -13.814249063426216 12 83 0
2905 997 3 -0.8476 -10.340658515156084 -9.421525303241415 -18.890034504633267 0 -71 -32
2906 997 4 0.4238 -9.550594992710554 -8.850297946219827 -18.667548313659204 0 -3 -42
1095 393 4 0.4238 -9.158974344882543 -13.150267985926067 -15.372974565142332 0 7 -18
2733 939 4 0.4238 -8.678883139885164 -9.801369718989204 -13.610495592948569 0 -1 -11
2907 997 4 0.4238 -10.089212855721055 -10.074567176758576 -19.604395699056894 1 -20 13
2146 744 3 -0.8476 -12.654458558851966 -11.861607095311262 -19.55472079058523 0 12 -90
2504 863 4 0.4238 -7.862985651392408 -13.813187840848359 -16.797329646343975 0 0 -34
1093 393 3 -0.8476 -8.182765598620994 -13.108620404021835 -15.160178888706742 0 10 36
1094 393 4 0.4238 -8.059545220602882 -13.057443806600189 -14.169120011761413 0 -74 7
2589 891 4 0.4238 -4.451627227163974 -13.092916065673357 -15.529475936677665 0 0 1
2588 891 4 0.4238 -4.470906886986438 -11.957472695566603 -16.70294233799624 0 0 29
2587 891 3 -0.8476 -4.121630812568657 -12.186881992854643 -15.79443872182403 0 0 -7
2205 763 4 0.4238 -7.739092518240961 -10.950640940266037 -15.32959434508578 0 -3 -24
2204 763 4 0.4238 -6.671911903007102 -9.733142790285335 -15.54278555475074 0 18 -20
4731 1605 4 0.4238 -5.074002490651255 -12.294000539422191 -18.7612942421572 0 0 13
4729 1605 3 -0.8476 -5.365989427222288 -11.579768330976327 -18.12519991521004 0 0 -17
4730 1605 4 0.4238 -6.030862113157536 -10.983832285639645 -18.575538197067438 0 0 26
3698 1261 4 0.4238 -4.748955242240748 -10.178981497551451 -16.89241730222175 0 0 0
3697 1261 3 -0.8476 -4.785806378254699 -9.260368470325393 -16.49898100346871 0 0 -1
2203 763 3 -0.8476 -7.4503857014160415 -10.051148368642286 -15.001627980660793 0 -1 -31
3699 1261 4 0.4238 -4.578882702175458 -8.585747880001065 -17.207549765249677 0 0 -9
5334 1806 4 0.4238 -6.256534920694454 -10.483732272121241 -13.593356887844793 25 18 -7
2639 908 4 0.4238 -3.9766587533757756 -8.850451829630156 -14.679676879138764 57 0 22
2640 908 4 0.4238 -4.402356837466828 -9.59342822326704 -13.289211513619032 13 0 19
2638 908 3 -0.8476 -3.802733986363856 -8.904479446292429 -13.696400698435294 25 0 14
441 175 4 0.4238 -2.823081200939302 -9.866296688883697 -18.422343944104995 4 0 4
1464 516 4 0.4238 -2.75320016158846 -11.603666528447015 -15.012005161552763 -6 51 -137
4196 1427 4 0.4238 -1.9458738121955927 -13.711839147195606 -18.699881928028116 -2 -19 9
1463 516 4 0.4238 -2.279801374789607 -11.081481598698511 -13.538966467830718 -25 -4 31
440 175 4 0.4238 -1.2308590835625726 -9.862775178510345 -18.059793499892525 -1 0 -6
439 175 3 -0.8476 -2.002755357015303 -10.432506678770109 -18.341896636104135 1 0 -9
1462 516 3 -0.8476 -1.9650715836614954 -11.363499184966608 -14.445283875180943 -7 -18 13
5062 1716 3 -0.8476 2.074586148449663 -12.9916283442188 -18.39162465243119 0 -64 -24
4753 1613 3 -0.8476 0.46130148154711054 -12.529191075542053 -13.785814354604279 -1 -1 11
4755 1613 4 0.4238 -0.4620859085906983 -12.166998460997382 -13.912984577074674 -1 13 -73
4754 1613 4 0.4238 0.7522734985394444 -13.00006040575841 -14.618651300469427 -1 1 15
3415 1167 3 -0.8476 0.1668497945641861 -8.68870313552929 -17.438275998130205 -44 -1 -44
2980 1022 3 -0.8476 2.493758870198594 -10.867322579956864 -16.672036384407242 0 0 2
2982 1022 4 0.4238 2.3424682482273567 -11.769574919685656 -17.07583437354261 0 0 9
2981 1022 4 0.4238 1.754113634812352 -10.251940576997733 -16.944489464626166 0 0 -19
4195 1427 3 -0.8476 -2.121449181839275 -12.98776093947272 -19.366878235421662 -3 -24 -15
4399 1495 3 -0.8476 0.5477604839496947 -9.175441280792507 -14.017009298254877 0 0 0
4197 1427 4 0.4238 -2.215233755024555 -12.112725188745891 -18.891991982372915 -2 -67 -27
5063 1716 4 0.4238 1.361758237691035 -12.837796183967853 -19.07588488060887 0 129 -22
4400 1495 4 0.4238 0.1750817198544598 -10.056676688567284 -14.307758275332228 0 0 0
4401 1495 4 0.4238 -0.016193255771852128 -8.801662954594708 -13.280635621849306 0 0 0
5064 1716 4 0.4238 2.957541975669853 -12.698691759436901 -18.75847232169965 0 126 21
1300 462 3 -0.8476 4.595524295417747 -13.795978796708996 -13.647613827913164 0 -102 0
1490 525 4 0.4238 3.730723801890898 -11.314999676196212 -15.582071791929184 -1 -1 50
4631 1572 4 0.4238 5.989206072175261 -13.520242358845593 -16.755164417267945 0 0 0
1301 462 4 0.4238 4.355868542338681 -12.841585792595245 -13.825659254947201 0 -16 0
4630 1572 3 -0.8476 6.062012007787946 -12.543800220712042 -16.55203863890121 0 0 0
5519 1868 4 0.4238 7.6538765388519785 -12.97643849088467 -17.61620438749472 25 0 23
4632 1572 4 0.4238 5.664704602794858 -12.359849451053412 -15.652978591917337 0 0 0
4764 1616 4 0.4238 4.942811813022957 -10.263385609855819 -17.01042395184207 36 0 -27
4763 1616 4 0.4238 6.228448658809093 -9.26975789754951 -16.847731992818847 -6 0 -190
4762 1616 3 -0.8476 5.363705214190362 -9.413979886031292 -17.328793290536925 -14 0 42
1489 525 3 -0.8476 4.163526051321001 -11.328822184350688 -14.680688854997813 -1 -9 -46
1491 525 4 0.4238 3.7144804070975352 -10.662778953727136 -14.085084558146884 -1 -9 -99
1378 488 3 -0.8476 7.968507162436412 -9.14784129862046 -16.024257269282952 36 0 18
1775 620 4 0.4238 6.0277382390035825 -9.646670568287428 -19.10633709736202 3 0 48
4414 1500 3 -0.8476 4.407249655930596 -12.15118843522722 -19.18675658443834 0 0 -32
4415 1500 4 0.4238 4.944269571005178 -12.553216109218695 -18.44514759188636 0 0 15
5518 1868 3 -0.8476 8.334179840163273 -13.118462647459584 -18.335243026968396 29 0 10
6034 2040 3 -0.8476 8.300033027442534 -13.17680019091347 -14.476123969532885 0 -3 0
1682 589 4 0.4238 7.187769857560984 -8.980707235629165 -13.904957635150483 65 -38 3
4416 1500 4 0.4238 4.780438367670412 -11.253125887500087 -19.4195968681376 0 0 -52
1380 488 4 0.4238 8.336627937105531 -8.659791361143302 -16.8156449125327 -41 0 6
5520 1868 4 0.4238 8.382932649251172 -12.30408447170259 -18.91352615206616 18 0 53
6035 2040 4 0.4238 8.235204058138429 -12.472088462376584 -13.769597495581735 0 -14 0
5511 1865 4 0.4238 3.8646358150405566 -8.501985053320121 -17.642164467066316 -1 77 -8
6036 2040 4 0.4238 8.510288949915344 -12.749062333875173 -15.355233200159624 0 -46 -1
4317 1467 4 0.4238 9.90738134216539 -13.6536033334211 -18.649362800632982 17 38 -25
1379 488 4 0.4238 8.711072284242501 -9.619027313725724 -15.54825218906894 35 0 6
4315 1467 3 -0.8476 10.723019930036418 -13.909406915230484 -19.168303401442472 -1 13 -48
4462 1516 3 -0.8476 12.006773235245351 -13.265375084949365 -16.21941900195901 0 5 -15
4464 1516 4 0.4238 11.72000124888717 -12.82833944494553 -17.071922227226267 0 27 -74
4463 1516 4 0.4238 11.898952668744013 -12.6213806975796 -15.462024248904811 0 -71 59
2686 924 3 -0.8476 11.316220979891447 -10.184566499492343 -18.670993781628276 10 0 -56
2674 920 3 -0.8476 11.810397770969658 -11.856675996538547 -13.772825465770145 -3 -72 0
2676 920 4 0.4238 10.990468468895422 -11.289595490752465 -13.851157793155659 20 195 0
2687 924 4 0.4238 11.713192582346835 -10.066064068362405 -17.760845018845316 70 0 -108
4672 1586 3 -0.8476 10.22376991936531 -9.843359009404388 -14.912625564248291 -28 0 -17
4673 1586 4 0.4238 11.090448937910208 -9.765103987346627 -15.40531577257287 19 0 -58
3718 1268 3 -0.8476 12.877949342342172 -9.685787998960159 -16.607602203703212 26 -13 -2
2688 924 4 0.4238 11.90372942651525 -10.783167276299125 -19.215522031579432 -71 0 12
170 85 4 0.4238 10.128711541035013 -9.031646804895347 -18.379562595142197 0 10 16
3720 1268 4 0.4238 13.119179994341918 -8.740125020975615 -16.825614733797753 -47 37 22
4674 1586 4 0.4238 10.136071465802745 -9.082599587581905 -14.269543838903441 -22 0 38
3719 1268 4 0.4238 13.709629872236949 -10.238725750084921 -16.556930214048165 59 29 57
1037 374 4 0.4238 12.070155217410592 -12.694233945094052 -19.669154621941725 0 48 -62
1437 507 4 0.4238 9.680038347942375 -10.61497916838032 -19.683435534064998 0 0 7
3887 1324 4 0.4238 19.508913302516955 -11.243769721395484 -19.380983877469752 -15 38 -1
504 196 4 0.4238 14.387530884905342 -13.695176229249768 -17.94917730340364 0 41 129
1425 503 4 0.4238 14.651246326935155 -9.26737282240553 -18.60442398635875 28 -1 1
825 303 4 0.4238 18.696197800643674 -9.103009612111453 -13.834402475007527 30 -12 -18
4585 1557 3 -0.8476 17.514807912336476 -13.435775191370494 -14.585405992081736 -21 29 78
4587 1557 4 0.4238 17.397448956165448 -12.835614828399459 -13.794182606820952 -18 -105 -50
4985 1690 4 0.4238 15.804904200780653 -11.336467700014985 -16.01438280540501 -16 -31 0
4586 1557 4 0.4238 17.762290180649213 -12.888603251041403 -15.38500303094793 -44 -180 -9
1102 396 3 -0.8476 17.71015301166403 -12.33867277215086 -17.134178306659717 -6 27 57
1103 396 4 0.4238 18.56995761061952 -12.023549072261796 -17.535965733456955 -22 -42 -21
1104 396 4 0.4238 16.9949069361881 -12.33593567058328 -17.83304566055474 -29 32 -64
4984 1690 3 -0.8476 15.582616879941495 -10.402356558866222 -15.735053476138557 53 2 0
4986 1690 4 0.4238 16.244116708355943 -9.768340047996793 -16.135605333533743 81 -75 0
5626 1904 3 -0.8476 18.045032543259765 -8.674135914066863 -19.224128324931126 0 27 6
2328 804 4 0.4238 15.320218662584214 -9.796724911639922 -14.067050220272675 37 0 -5
5628 1904 4 0.4238 17.154074655354673 -9.10698685490138 -19.086890852196355 -1 20 42
1423 503 3 -0.8476 15.29216481283714 -9.698149183342219 -19.239763206655454 7 -1 0
1010 365 4 0.4238 16.09334476807794 -11.031102351449967 -19.55213864724852 0 112 -71
4581 1555 4 0.4238 18.9868896870108 -13.67364904136581 -13.271925268542953 -9 107 0
96 60 4 0.4238 19.642320986804176 -11.341947065504499 -13.171693002375093 27 -39 0
341 142 4 0.4238 -19.007314235870926 -8.317471254429678 -16.839029101205945 36 93 -39
1405 497 3 -0.8476 -16.625982142409438 -8.192639755109079 -19.19502492063888 -1 -7 -35
1406 497 4 0.4238 -16.713144420489233 -7.2195540902030375 -18.981701131974585 -6 12 75
3383 1156 4 0.4238 -15.373081264858556 -6.332085338531484 -14.956253648067046 0 -1 -5
3382 1156 3 -0.8476 -16.347061283988733 -6.553892127881369 -14.909714356296423 0 -1 -6
3384 1156 4 0.4238 -16.715416539077054 -6.254446188680179 -14.029574060816328 0 -1 -35
5114 1733 4 0.4238 -18.248175454247896 -6.033500647130412 -18.267981478994695 -59 -105 0
3829 1305 3 -0.8476 -18.65295476316836 -6.286136989840716 -16.543641903056038 2 0 0
3830 1305 4 0.4238 -17.947972137211586 -6.328516238830832 -15.83568352865558 -55 0 0
5847 1977 4 0.4238 -15.804805855130237 -4.237729651200678 -17.965576916063785 0 0 0
1055 380 4 0.4238 -18.52456143504042 -4.307703549093954 -16.472456759744784 6 0 0
5113 1733 3 -0.8476 -17.97433401356014 -5.5466740653026845 -19.097445626403896 -13 41 1
5115 1733 4 0.4238 -17.408822949909272 -4.759707804995234 -18.850704117017916 29 -13 -35
1054 380 3 -0.8476 -18.35384383732563 -3.3240714326436946 -16.414808024910265 5 0 0
5845 1977 3 -0.8476 -16.49320316302452 -3.5474845461400304 -18.188446573732115 0 0 0
5846 1977 4 0.4238 -17.071648197011612 -3.383483960134512 -17.389381375452057 0 0 0
3831 1305 4 0.4238 -19.478974433177406 -5.866981876395697 -16.166811789485195 66 0 0
4507 1531 3 -0.8476 -14.288793066629685 -5.066798344142465 -17.588112568405776 112 0 1
1056 380 4 0.4238 -19.14719644715569 -2.871372733032024 -16.00779997671604 0 0 0
4508 1531 4 0.4238 -14.085646338553838 -5.633382676731775 -16.78954217544858 11 0 21
5455 1847 3 -0.8476 -13.596294005765394 -6.420248014038258 -15.103114102631436 -3 0 -4
5456 1847 4 0.4238 -13.437661825351203 -5.7045441298801824 -14.422964243693642 -7 0 15
5108 1731 4 0.4238 -10.64480093168833 -7.998241122480176 -14.05173776906733 -26 43 62
4545 1543 4 0.4238 -11.471772187517772 -5.612871980447426 -18.0945209219623 26 0 -33
4544 1543 4 0.4238 -11.003800862125034 -5.052371949125187 -16.63388077229568 153 -1 -5
4543 1543 3 -0.8476 -11.30624457731114 -4.790394961802634 -17.550339349343727 19 0 114
5107 1731 3 -0.8476 -10.918037646849138 -7.536686512655099 -14.895721799515359 65 36 14
5109 1731 4 0.4238 -10.369069357761116 -6.709547608099997 -15.016034213021342 111 54 -34
4509 1531 4 0.4238 -13.471796389160607 -4.552129830336604 -17.848176749913623 66 0 -2
5457 1847 4 0.4238 -12.749051046030216 -6.9292161851000085 -15.255202221547101 -22 0 27
5632 1906 3 -0.8476 -9.343876699853148 -5.454756356973349 -15.53265159242304 3 4 0
5634 1906 4 0.4238 -9.512570601533666 -4.573197806327698 -15.091746936756431 -16 -36 0
1780 622 3 -0.8476 -11.519077234212563 -6.843548198475341 -19.400530530623914 11 0 29
3740 1275 4 0.4238 -10.556980918436185 -2.9078817886426154 -17.6619220766212 -29 -20 0
1781 622 4 0.4238 -10.956288434270313 -7.6462232036845315 -19.597968608810543 54 0 15
4177 1421 3 -0.8476 -9.621774776834952 -2.8572453175091344 -14.702130063502612 -58 8 19
4496 1527 4 0.4238 -4.272847701202144 -8.337276675781746 -19.565919921107902 0 0 -210
5633 1906 4 0.4238 -8.440715074140035 -5.44536390200195 -15.961849533110474 4 6 0
5720 1935 4 0.4238 -8.10925668407519 -7.991686022004081 -17.20709408069957 0 -54 17
5719 1935 3 -0.8476 -8.009535256417783 -7.939354935120278 -18.200732507773047 0 75 -11
4495 1527 3 -0.8476 -3.848126436391869 -8.106299834786716 -18.690556239326423 0 0 11
5490 1858 4 0.4238 -6.313054657910916 -5.18473411370046 -18.118365513564296 -14 0 -7
2258 781 4 0.4238 -6.332636538972334 -5.407431076910956 -14.96351518404503 0 0 20
2257 781 3 -0.8476 -6.411750455340921 -5.956115970811 -15.795792732997077 0 0 -15
5200 1762 3 -0.8476 -5.813450739267047 -4.364012975134023 -13.71989231835931 0 0 -3
1866 650 4 0.4238 -3.8430039508275775 -3.4703518699722395 -16.696670149153693 0 -1 -17
1864 650 3 -0.8476 -3.768376267378482 -4.1564452436281485 -15.972994383629944 0 0 40
2259 781 4 0.4238 -6.105402497724462 -6.8897117646908566 -15.609916887663775 0 0 46
1865 650 4 0.4238 -4.667039908049264 -4.560870923030804 -15.80316053040553 0 0 69