LAMMPS data file via write_data, version 23 Jun 2022, timestep = 7500000

6090 atoms
4 atom types
4000 bonds
1 bond types
2000 angles
1 angle types

-19.955035947892743 19.955035947892743 xlo xhi
-19.955035947892743 19.955035947892743 ylo yhi
-19.955035947892743 19.955035947892743 zlo zhi

Masses

1 22.99
2 35.423
3 15.999
4 1.008

Bond Coeffs # harmonic

1 517.63 1

Angle Coeffs # harmonic

1 37.9505 109.47

Atoms # full

5217 1799 4 0.4238 -18.38298404621503 -16.6079367474542 -18.77143008543696 71 103 47
5215 1799 3 -0.8476 -19.236210181853615 -17.128358157908714 -18.80558923466853 -19 -27 -14
5216 1799 4 0.4238 -19.11073894234354 -17.9367890259656 -19.380652020717665 43 1 -98
4517 1566 4 0.4238 -15.273678347620162 -14.999385952611364 -15.809370460774037 -73 0 -7
4516 1566 3 -0.8476 -14.885291844716233 -15.66475727577705 -15.17184549372986 4 0 12
1173 451 4 0.4238 -19.114443434028537 -17.4730269754852 -15.598615000180626 4 22 13
4452 1544 4 0.4238 -15.854465744690485 -19.090157074973156 -18.71598335990407 -61 -68 30
1164 448 4 0.4238 -17.205496261356164 -16.396840568014543 -15.267688498582972 52 30 -69
4450 1544 3 -0.8476 -15.277987607612621 -18.32369370969976 -18.99919164188135 -5 -32 14
3154 1112 3 -0.8476 -14.29635428584285 -19.874246104003536 -14.712791191595526 -1 -18 -34
1162 448 3 -0.8476 -17.967112613743424 -16.49833371442104 -14.62765749384112 22 26 -17
1163 448 4 0.4238 -18.587517050964728 -15.719706850177863 -14.721671134631524 -28 -19 -67
1172 451 4 0.4238 -19.67715113709982 -18.226481641234855 -16.93364041974727 158 -110 -12
1171 451 3 -0.8476 -19.833862304180858 -18.06680041927081 -15.958989885370256 63 -62 0
4451 1544 4 0.4238 -15.263931095235812 -18.26829053035161 19.912514888538098 -67 -54 -11
1062 414 4 0.4238 -14.211078363770293 -17.065006724448256 -16.194953265680592 -2 0 47
1061 414 4 0.4238 -14.264845539487148 -17.965002503752586 -17.556475646393757 -28 0 -22
3155 1112 4 0.4238 -14.180385684428726 -19.24306088694112 -15.479705601788762 24 -11 6
1060 414 3 -0.8476 -13.930822581783895 -17.928333443581568 -16.614624231934258 5 0 14
299 160 4 0.4238 -10.793586448638163 -17.277994105357354 -15.658057025979247 0 -53 1
300 160 4 0.4238 -11.36045037587897 -18.800507840029606 -15.493000267303668 0 -145 1
298 160 3 -0.8476 -10.811250020806911 -18.082837209628263 -15.06483217363928 0 32 1
4127 1436 4 0.4238 -10.717366390936801 -15.15019804421145 -18.43309204305661 30 -89 30
4126 1436 3 -0.8476 -10.972542912731974 -15.400787119756528 -17.499234240627345 20 14 5
4447 1543 3 -0.8476 -9.23991992488586 -19.366373871795197 -17.470675561884352 -38 -51 -88
825 335 4 0.4238 -9.925685384224597 -15.158533332328453 -15.963818676217736 0 0 0
2853 1011 4 0.4238 -12.736821615181835 -19.49482548541511 -16.884280437164644 0 15 155
4128 1436 4 0.4238 -11.637494907640594 -14.742042617735367 -17.147246261818694 -28 -109 13
823 335 3 -0.8476 -9.436908221252317 -14.829800599423146 -15.155714910175128 0 0 0
4448 1543 4 0.4238 -8.800006395402379 -18.728454999613756 -16.83858723007239 33 98 -128
4449 1543 4 0.4238 -9.06305894946295 -19.078305464429164 -18.411811472988504 -14 32 5
2852 1011 4 0.4238 -11.129690964585587 -19.72100613182752 -17.064837736113557 0 73 -30
1941 707 4 0.4238 -8.261532988234078 -16.908087121438474 -15.18749855496224 -6 -1 66
1940 707 4 0.4238 -7.001434081714632 -17.91055827928769 -15.45921329111127 213 0 -85
1939 707 3 -0.8476 -7.923361802418063 -17.65944510944758 -15.75415704914279 -15 -2 -113
2418 866 4 0.4238 -5.915000707303371 -17.985947969484688 -17.360634793174473 0 -11 -166
2416 866 3 -0.8476 -5.249506325982114 -17.656067969482528 -18.030184513081725 0 21 18
1187 456 4 0.4238 -4.028861417752503 -16.848097022275525 -17.1206714068222 -10 0 41
2417 866 4 0.4238 -5.071414380979117 -18.372990054595626 -18.70420731626984 0 1 30
4310 1497 4 0.4238 -6.691339189138278 -14.964966508095518 -17.2150571793825 11 -97 19
4309 1497 3 -0.8476 -6.447277824281912 -14.77987622058703 -16.26312452292133 -29 -50 1
1186 456 3 -0.8476 -3.527848525408047 -16.293343490676705 -16.45641544151524 -10 0 -21
5534 1905 4 0.4238 -4.790024373718415 -16.507620913171678 -19.11225277359687 0 0 25
4004 1395 4 0.4238 -5.412628511211781 -19.744846851907738 -14.884790279238441 1 -15 -1
4003 1395 3 -0.8476 -5.329227572751361 -18.778021005474972 -14.643351036261938 1 58 0
1188 456 4 0.4238 -3.748475287420425 -16.60137328591954 -15.530973995322825 -22 0 -26
4311 1497 4 0.4238 -7.279010428001478 -14.722196920614683 -15.710952133001314 -94 79 1
5533 1905 3 -0.8476 -4.595573249457784 -15.740983579569567 -19.724180864169067 0 0 16
125 102 4 0.4238 -6.243840417885133 -19.684026652811355 -19.23973116960504 33 66 -98
2658 946 4 0.4238 -3.1795358516787813 -18.797892546973998 -15.150877460331058 0 -16 -28
1666 616 3 -0.8476 -7.561625010979153 -18.577814001113467 -19.82893825555379 0 66 4
1628 603 4 0.4238 -3.824636815761699 -14.45346542681646 -18.79110375207657 6 -58 35
818 333 4 0.4238 -4.530600187340646 -14.246618558896099 -15.732301695722326 0 0 11
5031 1737 4 0.4238 -1.665267702197671 -16.28602615092483 -16.38784995256784 0 -62 30
2080 754 3 -0.8476 -1.1505759349013571 -19.574342743021088 -17.011088880547103 0 17 -24
2082 754 4 0.4238 -0.6565281045215948 -19.237141066936186 -16.20970764563907 0 -69 -204
5030 1737 4 0.4238 -0.37777941304275015 -15.58276389602003 -17.105082925332272 0 -22 39
5029 1737 3 -0.8476 -0.712902532949764 -16.41533462352043 -16.664039326018052 0 66 -19
1220 467 4 0.4238 0.1382308157266201 -17.36599464277627 -15.459654060434335 0 21 0
3049 1077 3 -0.8476 2.1631626866914244 -19.699422836648047 -15.349910574908685 0 -59 5
3050 1077 4 0.4238 1.4691204633314943 -19.17844729279336 -14.853030409886923 0 31 9
2081 754 4 0.4238 -0.755409019321908 -19.175341563266617 -17.838520422806564 0 -101 148
613 265 3 -0.8476 0.01136429139870087 -18.944272829865902 -19.332547205640854 0 -17 -118
129 103 4 0.4238 2.1979787388648004 -15.404063638931143 -19.489374803136954 0 0 184
1219 467 3 -0.8476 0.600132177207101 -17.683773578219736 -14.631605926866769 0 28 0
4170 1450 4 0.4238 2.5731012648131277 -19.01419913430555 -17.090879643734887 0 18 27
4168 1450 3 -0.8476 2.6963853437004808 -18.928104604616944 -18.079509840973017 0 93 -4
614 265 4 0.4238 0.9605690242655296 -18.95257163913451 -19.01799640215101 0 14 25
1432 538 3 -0.8476 2.7152322287211716 -15.012563507399484 -14.599635919766945 0 0 -11
1433 538 4 0.4238 2.3064815449922933 -14.246200006478213 -15.095226363424688 0 3 10
2656 946 3 -0.8476 -2.4220795840294262 -18.756454661236923 -14.499307716165616 0 40 16
127 103 3 -0.8476 2.704443703037865 -16.22573835403009 -19.227946199233642 0 0 45
1835 672 4 0.4238 0.34513080694426557 -14.465697034518932 -19.14120268280161 0 30 -74
1834 672 3 -0.8476 0.07492037113719614 -14.262920581020332 -18.19999705011111 0 0 -4
4169 1450 4 0.4238 2.7731202110336395 -17.961212258029512 -18.322885623241916 0 32 -93
2116 766 3 -0.8476 6.181013106747534 -17.666611039252228 -17.900699745171785 0 -3 22
2118 766 4 0.4238 5.421845817691227 -17.622096587711233 -17.2513280582513 0 0 -25
2422 868 3 -0.8476 4.3474361236285155 -17.425896871363012 -15.982729526045064 14 23 0
3603 1261 4 0.4238 5.6697520502879115 -16.42310910253919 -18.60434087027415 0 -49 23
3601 1261 3 -0.8476 5.376637850099574 -15.625888365355737 -19.132093923007258 0 -31 10
2117 766 4 0.4238 6.556049460882838 -18.593552343962106 -17.911996140345 0 168 -10
2786 989 4 0.4238 3.7728685820239285 -19.372518108488716 -19.257766646156462 0 -1 -41
2423 868 4 0.4238 3.5750835260221083 -17.928450715195005 -15.594256456344645 -1 21 0
2424 868 4 0.4238 4.252712040148262 -16.453223529839562 -15.770752608852945 11 40 0
4726 1636 3 -0.8476 7.697968761696371 -15.402956444158487 -16.568339566355423 0 2 16
128 103 4 0.4238 3.685559810518777 -16.033527860762078 -19.249573320340524 0 0 134
2785 989 3 -0.8476 4.618957489779553 -19.652698252928428 -19.71123404560252 0 6 -6
4727 1636 4 0.4238 7.114593209770432 -15.694935196269867 -15.810433640552002 0 -11 85
4623 1601 4 0.4238 4.5796989227549405 -14.385795904411363 -18.17531096524426 0 -34 -61
4728 1636 4 0.4238 7.63041667421941 -16.064676415964453 -17.31504125691419 0 21 63
5898 2026 4 0.4238 8.521955569722294 -15.03421479097957 -18.047417139820322 0 43 7
3602 1261 4 0.4238 6.091870128172542 -15.377200471479007 -19.785237979004485 0 -159 -2
2787 989 4 0.4238 5.403529791011079 -19.325399325667597 -19.184620594714367 0 -3 9
1353 511 4 0.4238 4.469497524490746 -15.20396869842215 -14.333723450225712 0 -57 -68
1107 429 4 0.4238 8.548198370499566 -19.444603299641056 -18.39905820916951 72 -56 61
5896 2026 3 -0.8476 8.74941961910816 -15.078168854903236 -19.02021142607387 0 -13 0
1020 400 4 0.4238 11.79958359699705 -18.474207142465346 -16.587026892237276 0 20 25
1019 400 4 0.4238 10.326814084246438 -18.103015218584517 -17.186854381119467 0 -87 35
1018 400 3 -0.8476 10.974550970588695 -17.927112517551308 -16.445574949478132 0 -22 -3
1105 429 3 -0.8476 9.36880946243134 -18.920445935106905 -18.626778665421664 31 34 -12
307 163 3 -0.8476 11.443085123328569 -15.145249115460192 -19.09433483456962 10 27 8
1954 712 3 -0.8476 11.991787766222878 -15.246147173470424 -16.477425463963286 0 69 -39
1956 712 4 0.4238 11.580452356927031 -16.091810877508458 -16.137342938527222 0 112 58
1955 712 4 0.4238 11.811845440473853 -15.158489004635053 -17.45718915181337 0 122 71
4216 1466 3 -0.8476 13.764590808309677 -16.68530959198443 -14.628306302430774 0 24 -9
1809 663 4 0.4238 10.282312657779102 -18.306803411135412 -14.894972835851927 51 -2 0
4218 1466 4 0.4238 13.345099236648105 -16.107450470175525 -15.328381899438952 0 62 31
5897 2026 4 0.4238 9.679426042761374 -15.429079599118213 -19.12953126038085 0 -55 -15
4945 1709 3 -0.8476 13.769799565166622 -18.998171142819075 -16.863722191264646 87 0 12
1106 429 4 0.4238 9.299362050242413 -18.583794954846276 -19.565843990737044 -32 -48 84
308 163 4 0.4238 12.054288704960731 -15.818672050148272 -19.5101854873787 -117 -24 -55
4758 1646 4 0.4238 11.843026555464142 -19.74737992801332 -19.348139792187695 0 -15 6
4947 1709 4 0.4238 13.850765437484263 -18.003906075017877 -16.793854393283507 123 -7 -29
4946 1709 4 0.4238 13.978004546311247 -19.412617194137628 -15.977784730988478 -111 -18 -81
5681 1954 4 0.4238 11.616209646556495 -14.380769875247543 -14.881160051713039 0 -11 0
309 163 4 0.4238 11.600287467723913 -14.250071432031975 -19.51140123408266 8 4 25
674 285 4 0.4238 14.327900941393425 -16.13307894126416 -19.59735786641266 -1 -10 -68
3900 1360 4 0.4238 19.069171305786675 -14.566496170110886 -16.195635833708476 -43 2 -2
2625 935 4 0.4238 16.163499417466028 -15.545823393271775 -18.209348467765526 0 -231 117
3898 1360 3 -0.8476 18.12128010484878 -14.884236962298619 -16.218940185724176 -48 0 -19
3899 1360 4 0.4238 18.008384182750472 -15.541821294301426 -16.9638142516223 -9 9 18
4539 1573 4 0.4238 15.433591098112368 -18.90345620033596 -18.196007678895622 -1 151 0
4537 1573 3 -0.8476 16.191145475488767 -18.71585210900946 -18.8212405054833 -8 -79 0
2623 935 3 -0.8476 15.312474636352544 -15.13827073996921 -18.54049494271299 0 -16 -10
4328 1503 4 0.4238 17.30800840652487 -17.412921934201705 -18.590571778537456 0 -27 22
4327 1503 3 -0.8476 17.86367505646856 -16.581517442249236 -18.589488668255875 0 -143 -5
4329 1503 4 0.4238 18.832233676006844 -16.82790190141966 -18.623969390258193 0 39 69
4439 1540 4 0.4238 19.348947149238303 -14.760362286236479 -18.943098405283823 55 -39 39
4662 1614 4 0.4238 18.291030495115482 -18.512452243286994 -14.951257641918346 40 -65 0
5388 1856 4 0.4238 17.753823182257157 -19.406851029732543 -18.78887180127803 0 25 9
4538 1573 4 0.4238 16.275041227210203 -19.465577004006466 -19.47765052273786 -68 -14 16
4660 1614 3 -0.8476 17.371329688458438 -18.627942340160434 -14.576006353199094 25 7 0
2624 935 4 0.4238 14.968771228722655 -14.487796308539725 -17.8631826025681 0 71 110
5386 1856 3 -0.8476 18.584855351790978 -19.92225534281709 -18.57972127158483 12 -15 0
4217 1466 4 0.4238 14.698421178999046 -16.372967148396107 -14.45394067459632 0 -20 55
5189 1790 4 0.4238 16.9544096451878 -14.2408771455689 -15.342984401788383 87 0 -39
1564 582 3 -0.8476 14.884483764304449 19.938310008916755 -14.444430359993335 12 65 27
107 96 4 0.4238 -18.474604243334998 -14.147782733208844 -18.992653400787535 -26 -2 96
5884 2022 3 -0.8476 -19.236645276781076 -14.184007867858067 -15.65923271659181 86 3 -4
4815 1665 4 0.4238 -16.364429183613925 -13.88136283422623 -17.760048201859167 12 0 0
5885 2022 4 0.4238 -19.131379059661562 -13.450976014068381 -16.331232822796967 180 64 44
5886 2022 4 0.4238 -19.635921251039658 -13.812835675025863 -14.820894514324348 -2 69 22
106 96 3 -0.8476 -17.48938594687159 -14.029659591423638 -19.116717451506318 -3 -2 25
5110 1764 3 -0.8476 -17.03866735070045 -10.998169187567573 -18.71542887735846 -188 0 0
5111 1764 4 0.4238 -17.895985545617858 -11.200424608678482 -18.242037681179827 100 0 0
5112 1764 4 0.4238 -16.69740699499634 -11.828385220742081 -19.15620488973762 319 0 0
484 222 3 -0.8476 -18.333681762029087 -11.562823040717804 -16.330717367746658 -49 0 29
486 222 4 0.4238 -17.612571667164975 -11.520221604308993 -15.63920783864606 18 0 96
4813 1665 3 -0.8476 -15.735793818529128 -14.024784215501132 -16.995687086730584 0 0 0
485 222 4 0.4238 -18.935259651319413 -10.769854814472723 -16.234248317452835 81 0 -109
1575 585 4 0.4238 -15.963508137088015 -10.247037815378746 -17.681973200596634 77 0 0
4814 1665 4 0.4238 -16.024316920926754 -13.466774041364513 -16.21762598762783 24 0 0
1573 585 3 -0.8476 -15.345605074229356 -9.767170880921274 -17.059138087046858 9 0 0
1742 641 4 0.4238 -16.641055082382433 -9.153625331189987 -16.045737047253958 98 -21 0
3104 1095 4 0.4238 -14.685461491700217 -9.53189170262153 -15.27520553262419 63 0 18
1574 585 4 0.4238 -14.508429156741997 -9.518381276671638 -17.54621121092309 56 0 -25
1741 641 3 -0.8476 -17.50080838759484 -8.830600981649154 -15.650160506961733 -125 -40 0
3825 1335 4 0.4238 -18.079875975168836 -9.311670088534315 -14.238695088160235 -137 16 1
4438 1540 3 -0.8476 19.952442746064893 -14.090288102508918 -18.510901852396035 -17 26 14
1499 560 4 0.4238 -14.054399607371758 -13.926592970612091 -16.865745212502716 -239 9 -45
824 335 4 0.4238 -9.833151063573801 -13.961701176326194 -14.856724870869831 0 0 0
1498 560 3 -0.8476 -13.089245495864503 -13.666424977295378 -16.893855959056097 -70 -3 -26
3103 1095 3 -0.8476 -14.218631774300599 -9.605124498893613 -14.393895712501163 31 0 -2
1500 560 4 0.4238 -12.886873046671274 -13.230794211941879 -17.770937080061742 -56 32 98
1056 412 4 0.4238 -13.063243522398404 -13.047237898291755 -15.399937957415098 2 0 181
4212 1464 4 0.4238 -12.01293817367934 -9.528797343723138 -19.63926909610075 -6 33 -91
3396 1192 4 0.4238 -9.824630719860004 -12.935945452018583 -18.64955095698916 -36 -65 -21
2443 875 3 -0.8476 -12.737289231958064 -12.485934170908472 -19.333219204175606 2 0 17
5198 1793 4 0.4238 -10.052927237030987 -9.622643847524426 -15.874126569093773 -36 0 0
1054 412 3 -0.8476 -13.179339428637789 -12.36017145170944 -14.682678241031638 15 0 105
3394 1192 3 -0.8476 -10.28765414923922 -13.241107907259776 -19.48170792714889 13 -46 15
5197 1793 3 -0.8476 -9.68899663732135 -10.10474614631581 -15.077174895441752 74 0 0
4211 1464 4 0.4238 -12.65337463167562 -10.606308090315082 -18.592637232033358 13 -39 70
4210 1464 3 -0.8476 -12.456091304230492 -9.63860446941095 -18.74957371334322 -11 -3 60
3568 1250 3 -0.8476 -8.885919262075648 -12.506804649457958 -17.35570448913666 -14 0 11
2415 865 4 0.4238 -11.399463869316255 -9.227201609725117 -17.537852536820978 -27 0 0
2444 875 4 0.4238 -11.870720182399499 -12.869683679725892 -19.65227459475257 -13 0 45
3570 1250 4 0.4238 -8.896248418690805 -12.035496193386464 -16.473796476775338 -59 0 17
5199 1793 4 0.4238 -9.120919497904204 -9.480590174567721 -14.540781589119153 117 0 0
3324 1168 4 0.4238 -10.094758749556107 -11.598460743448157 -14.833236464919649 0 35 0
3322 1168 3 -0.8476 -10.409517000623142 -12.460348004791376 -14.435646612257354 0 -14 0
2413 865 3 -0.8476 -10.649992786609602 -8.715025140064046 -17.11836667659821 13 0 1
3323 1168 4 0.4238 -11.408736290039208 -12.464014933908318 -14.396309161473932 0 4 0
1055 412 4 0.4238 -14.042787641858972 -12.520310586641108 -14.204334579870546 -21 0 -103
1629 603 4 0.4238 -3.3113466813075 -13.998477702412794 -17.30916383787965 -16 -53 26
1627 603 3 -0.8476 -3.7102643532597948 -13.679132672233306 -18.16874713987503 26 -3 -31
3569 1250 4 0.4238 -7.96836841768211 -12.455983961631993 -17.750062722483925 -68 0 43
1596 592 4 0.4238 -5.350054880395907 -12.965051621551753 -18.137720003855584 0 24 -10
817 333 3 -0.8476 -4.088237364174879 -13.523025106199993 -15.20246429111127 0 0 6
5974 2052 3 -0.8476 -4.882390145852195 -10.053146323999833 -18.711866945636654 0 -1 47
1594 592 3 -0.8476 -6.169639429608157 -12.587606057470191 -18.568783859551772 0 25 -16
3921 1367 4 0.4238 -5.022377681988216 -9.974256686583464 -16.971462693684522 42 0 0
3919 1367 3 -0.8476 -5.085449086670623 -10.316376781114867 -16.033925563796537 -51 0 19
3920 1367 4 0.4238 -4.20838368571596 -10.714103845853064 -15.764538316271762 18 0 -5
5976 2052 4 0.4238 -5.3341623546878445 -10.93682173015932 -18.589312124462413 0 -22 89
3963 1381 4 0.4238 -6.7446784177904835 -11.085786039692715 -15.222115025584058 0 0 -40
1595 592 4 0.4238 -6.252009991834992 -12.945597447530433 -19.49886842058192 0 5 -62
1014 398 4 0.4238 -5.667782931851455 -9.203829248382148 -14.765294740126134 0 0 173
6032 2071 4 0.4238 -3.3330851787782576 -9.134717268563891 -18.959166082828837 0 59 32
5975 2052 4 0.4238 -5.088430986574754 -9.697025494877954 -19.623308203364118 0 76 129
3962 1381 4 0.4238 -8.24233555116256 -11.414246396817092 -14.660186417782285 0 0 -5
3011 1064 4 0.4238 -3.155363668334068 -12.122897373967335 -15.459274113916296 0 7 14
3961 1381 3 -0.8476 -7.268625843530329 -11.616962587173497 -14.556283842425062 0 0 -27
819 333 4 0.4238 -4.622064576168835 -13.340632848920963 -14.376775725500902 0 0 20
3489 1223 4 0.4238 -7.962822396251603 -8.648746204583807 -19.359166048631593 -1 -32 -91
1836 672 4 0.4238 0.8524979780703188 -13.873127123835518 -17.70660658148421 0 1 -126
3010 1064 3 -0.8476 -2.5021127693256364 -11.37154506179964 -15.55272459635247 0 -18 -2
4649 1610 4 0.4238 -2.3802841580556233 -12.546017951183243 -18.222152802442167 0 52 -60
3012 1064 4 0.4238 -2.0366531768702156 -11.442342427878163 -16.434957622155196 0 17 16
4650 1610 4 0.4238 -0.7921404943872761 -12.897890768727876 -18.078584952867146 0 38 19
4648 1610 3 -0.8476 -1.4707343539490962 -12.163628342338104 -18.05937264051123 0 -65 -27
1732 638 3 -0.8476 0.7781977048123712 -9.89446853652102 -15.795204686461163 0 0 -82
1734 638 4 0.4238 -0.15408553580724832 -9.700737658984401 -15.48972744326614 0 0 61
1733 638 4 0.4238 1.4271905712212885 -9.390444804642948 -15.225319573471575 0 0 62
1632 604 4 0.4238 0.8708988649081675 -9.071394799912289 -17.64784582653759 0 0 13
1630 604 3 -0.8476 0.44269412789929924 -9.32828664893977 -18.51424518638231 0 0 4
1631 604 4 0.4238 -0.539453842607264 -9.455625322961199 -18.37578724315918 0 0 18
6031 2071 3 -0.8476 -2.408869808362923 -8.76755438498493 -19.064129887010413 0 77 -6
5488 1890 3 -0.8476 1.9654470422000878 -13.288151830271836 -16.559875036555816 46 0 -67
5489 1890 4 0.4238 1.8856869964015592 -12.317359736002974 -16.333598518405466 10 0 -58
1155 445 4 0.4238 -1.1968785957567234 -11.488521094759152 -19.639945477034935 0 -38 2
137 106 4 0.4238 -0.8158115399850453 -13.164209676569214 -14.909075264014648 0 0 -21
5490 1890 4 0.4238 2.830286312873638 -13.449637281576969 -17.035243865034797 -71 0 -10
4320 1500 4 0.4238 7.979129574099563 -13.811976656620976 -15.94647615099651 0 -39 1
894 358 4 0.4238 4.328986627372491 -10.240370619995833 -15.96214831851736 10 2 -48
2782 988 3 -0.8476 6.531894195648954 -11.867206912847678 -17.768742708116573 0 0 48
2784 988 4 0.4238 7.124771988239058 -11.297819142911159 -18.33821043676998 0 0 147
4622 1601 4 0.4238 5.157201216670158 -12.879620440834664 -17.921237995289214 0 -185 7
4621 1601 3 -0.8476 4.328401136842578 -13.43140960242419 -18.01407751457739 0 -29 -1
2783 988 4 0.4238 7.017825765507665 -12.122610318056983 -16.932896048055916 0 0 -36
892 358 3 -0.8476 4.517168038025184 -11.20810827221477 -16.12969544897574 16 2 -9
893 358 4 0.4238 5.3264694553863245 -11.294570815730824 -16.710691369961925 -136 -26 -47
4318 1500 3 -0.8476 7.736654572336628 -12.91671449878777 -15.572696048003401 0 -15 6
4319 1500 4 0.4238 7.364566116502176 -13.029826456728529 -14.651416566980709 0 -25 -25
2933 1038 4 0.4238 8.405632401302052 -9.431550045988526 -14.541507584373027 -1 33 59
1944 708 4 0.4238 3.8976985961419337 -11.920443748926779 -14.606004027626687 117 -33 19
2102 761 4 0.4238 4.005076158264648 -12.523337424510725 -19.832761197087084 0 -22 12
2241 807 4 0.4238 6.858037933494305 -8.571627902524924 -18.838562372019624 0 0 -104
2932 1038 3 -0.8476 8.86942654486703 -9.187016040190729 -15.393034531508556 -1 7 15
2934 1038 4 0.4238 9.338844645810527 -9.99035844868014 -15.759487297578891 -1 3 18
3634 1272 3 -0.8476 11.944854127324758 -11.288087428489776 -17.875814106516255 6 -1 -11
3636 1272 4 0.4238 11.292449849310817 -11.80700284194423 -17.323459619811054 -5 -126 -9
3635 1272 4 0.4238 11.964725567034053 -10.338313522909331 -17.563508657354426 1 32 -32
5522 1901 4 0.4238 13.31928076341234 -13.69187830917266 -16.957668569501358 0 4 0
1309 497 3 -0.8476 10.14658032322511 -11.781480564235244 -15.81755010265359 -38 25 27
1311 497 4 0.4238 9.246707042625669 -12.20722623338514 -15.722838608326992 -4 71 23
3699 1293 4 0.4238 13.292621904939722 -11.27829498648551 -18.836895182767577 0 0 244
1310 497 4 0.4238 10.593370316351024 -11.744094858686568 -14.92369244955379 1 10 69
1748 643 4 0.4238 13.815911117805912 -10.69159044761205 -15.057435277036404 57 75 64
3697 1293 3 -0.8476 14.082023999199304 -10.915106708974491 -19.331808007828222 0 0 2
5455 1879 3 -0.8476 10.50736036756861 -8.601023476416135 -19.55241773139686 -2 45 -46
6076 2086 3 -0.8476 11.719467190464783 -8.667793405384339 -16.983597433783896 0 0 0
5521 1901 3 -0.8476 14.230521996337467 -13.365659425439446 -16.706230478669344 0 -9 0
5523 1901 4 0.4238 14.215855469787536 -12.369501879312152 -16.61987933333813 0 -1 0
6078 2086 4 0.4238 11.762943613575086 -8.61540012465744 -15.98591760427731 0 0 0
1749 643 4 0.4238 14.222458038708373 -9.721593722004755 -16.30661616037868 28 74 15
3698 1293 4 0.4238 14.402779922011481 -10.081573494601654 -18.881987948219532 0 0 -48
1747 643 3 -0.8476 14.363094492576632 -10.6203871853398 -15.891414783894568 28 36 23
4440 1540 4 0.4238 19.49937856134454 -13.199084204516476 -18.488776795403023 16 9 54
3264 1148 4 0.4238 19.32169932750381 -9.019550341916666 -16.302020895015385 22 -1 0
5190 1790 4 0.4238 15.410550893085798 -13.722743429111025 -15.464079946569914 6 0 -6
5188 1790 3 -0.8476 16.15786658655404 -13.921084889502316 -14.82990334930144 15 0 -34
3262 1148 3 -0.8476 19.330741470591306 -9.989356779886334 -16.545730727675828 -7 0 0
3263 1148 4 0.4238 18.72184948897679 -10.492778931534927 -15.932691202445517 61 -10 0
512 231 4 0.4238 17.706727732226696 -11.845815813231521 -18.801730963056375 4 0 -5
511 231 3 -0.8476 18.683291249432774 -11.636980718894499 -18.749642780002457 0 0 -5
513 231 4 0.4238 18.843264327882604 -10.970647228433958 -18.02135079981763 1 0 -23
4286 1489 4 0.4238 16.295978805446897 -10.7378376757969 -15.334483206557158 -29 0 44
2709 963 4 0.4238 15.855160736738682 -13.481252998402718 -19.210263898380145 0 19 -12
2708 963 4 0.4238 15.489010920037593 -11.906559365161261 -19.440265596325126 0 -61 102
2707 963 3 -0.8476 16.234030138953752 -12.56176892033333 -19.3151782557297 0 65 -50
4287 1489 4 0.4238 16.885930955011347 -12.102072017802373 -14.658134467406155 29 0 -38
4285 1489 3 -0.8476 17.12019250096659 -11.189223910756462 -14.992544217835155 -24 0 -5
2170 784 3 -0.8476 14.784761850121766 -8.613214121697203 -18.097840368589633 12 1 -35
4124 1435 4 0.4238 -16.489577542535116 -5.881073457931541 -16.909492297665462 2 136 -92
4123 1435 3 -0.8476 -17.275139383557413 -5.762363224502127 -16.302202183221137 -19 25 35
3928 1370 3 -0.8476 -16.56129010212662 -3.5373866598500263 -18.93352175686165 14 0 7
3930 1370 4 0.4238 -17.033569985768846 -4.192011246993592 -19.523791952471313 -15 0 -59
4810 1664 3 -0.8476 -14.85132609785838 -5.532016213296865 -17.782975833519757 -16 100 0
182 121 4 0.4238 -18.92079372914839 -5.73746025075862 -16.586347584496387 -42 0 21
4125 1435 4 0.4238 -16.996981153017863 -5.241053812942857 -15.495440075522515 -52 46 20
3929 1370 4 0.4238 -15.8237088302647 -4.002100815300976 -18.443608361006433 6 0 -11
1743 641 4 0.4238 -17.685377804121597 -7.9006323987339275 -15.968112128978143 -6 35 0
181 121 3 -0.8476 -19.867494587633058 -5.951678180253793 -16.82690566305354 26 0 4
1998 726 4 0.4238 -19.288498587223987 -5.595954782443486 -19.56967606501217 -24 11 80
4811 1664 4 0.4238 -14.251471773293952 -5.9897959334652935 -18.439186940669966 -67 -55 0
2067 749 4 0.4238 -18.204661429232978 -3.0949030572557215 -17.751405851869666 -229 0 -12
2066 749 4 0.4238 -19.200145074273944 -2.769536373035749 -16.498499015381086 16 0 10
4812 1664 4 0.4238 -14.309905804217117 -4.9185105060088965 -17.20810624196641 68 -148 0
192 124 4 0.4238 -9.201448744965049 -7.6750084616932845 -17.58374097276039 0 0 -75
2414 865 4 0.4238 -11.01714429413765 -7.913374879994889 -16.646607567045812 59 0 46
5637 1939 4 0.4238 -10.698083208198712 -5.382517798628661 -18.203333475454915 0 0 3
5635 1939 3 -0.8476 -10.71822848847087 -5.7291363051110995 -19.141123443546405 0 0 4
1845 675 4 0.4238 -11.813413250698359 -5.718931695469516 -16.051005674484117 -48 0 0
5636 1939 4 0.4238 -9.933776833476417 -6.3309545889430945 -19.29095933047398 0 0 0
1927 703 3 -0.8476 -12.41896251502886 -4.058830397619161 -16.310074011070018 -66 0 -14
1843 675 3 -0.8476 -11.306738317256642 -6.483416429557871 -15.652453744643845 28 0 0
1928 703 4 0.4238 -12.210998747932015 -3.5911825328281695 -15.450971797520719 12 0 54
1929 703 4 0.4238 -12.783631052538368 -3.4002182439063473 -16.968288965250856 -17 0 119
1844 675 4 0.4238 -10.488763057190761 -6.13761994360014 -15.192735021591096 131 0 0
5713 1965 3 -0.8476 -13.033504390382397 -7.1238114682098725 -19.619997417732634 16 0 69
5714 1965 4 0.4238 -12.248269290066018 -6.514068936791456 -19.51219577860646 34 0 49
5715 1965 4 0.4238 -12.873310886990248 -7.967378417352441 -19.107421777911085 -12 0 -78
5592 1924 4 0.4238 -10.1791974576957 -4.193322262958378 -19.75721673319487 34 -36 -177
5590 1924 3 -0.8476 -9.394816241178797 -3.5833254522874647 -19.869689051011974 -43 6 -2
5895 2025 4 0.4238 -13.656335931007103 -4.252229221598968 -14.481293406444635 0 -36 0
190 124 3 -0.8476 -8.428175959523367 -7.147628652492629 -17.935763352618196 0 0 85
191 124 4 0.4238 -7.771580636116763 -6.9865148965627215 -17.198928926589666 0 0 -63
1677 619 4 0.4238 -4.825509669713855 -5.983719429918249 -18.136295733251124 0 0 34
1675 619 3 -0.8476 -4.491610780089466 -5.842832726388704 -17.20427507832956 0 0 -6
1676 619 4 0.4238 -5.132239299985026 -6.2529843862310175 -16.555144312374672 0 0 2
1768 650 3 -0.8476 -6.634107077579459 -6.726506123902183 -15.932024604914684 1 52 0
1769 650 4 0.4238 -6.664329344031454 -7.454800444111834 -15.247426895870849 1 -20 0
1770 650 4 0.4238 -6.895607750512078 -5.859422638289669 -15.508015563493995 1 57 0
1470 550 4 0.4238 -6.419862108724277 -4.053365734616216 -14.767484955683617 -34 0 172
3446 1209 4 0.4238 -7.67626573165594 -5.830117307185464 -18.863548959754525 65 0 -23
2041 741 3 -0.8476 -5.865189886618811 -3.246207385912323 -15.938295278489626 0 -2 -44
3447 1209 4 0.4238 -6.276454129400256 -5.448183509692115 -19.612735553511133 -86 0 35
4521 1567 4 0.4238 -3.2318110037506522 -4.489365290242918 -17.197441992479696 0 0 91
3445 1209 3 -0.8476 -7.202428176945799 -5.134145784098492 -19.403087308124736 4 0 -17
3484 1222 3 -0.8476 -4.882480141652529 -6.529613413010276 -19.819713531841664 0 0 81
2043 741 4 0.4238 -6.345660036187309 -2.7972944710904573 -16.691704638390323 0 7 -77
3485 1222 4 0.4238 -4.824778375655983 -7.5225295059779045 -19.923579567408176 0 0 35
5591 1924 4 0.4238 -8.571421775255063 -4.126176166682678 19.875050818310264 16 -2 -69
263 148 4 0.4238 -2.932984577050537 -6.465487844950885 -16.57779592686571 0 -17 -51
4520 1567 4 0.4238 -3.1665433056156935 -2.8718349937610674 -16.983053640728954 0 0 -20
6033 2071 4 0.4238 -2.2447722126629044 -8.072656910713908 -18.36399452528318 0 36 -6
4519 1567 3 -0.8476 -2.657226215216586 -3.6760886681879312 -17.289276046554843 0 0 -19
264 148 4 0.4238 -1.7727508155862983 -7.4648778138339305 -16.010605640579268 0 11 7
262 148 3 -0.8476 -2.2787197746000634 -7.1802627627659925 -16.824847849111375 0 -5 18
776 319 4 0.4238 -1.1937154615723076 -6.4754576806072786 -19.261490955089478 0 0 -125
2337 839 4 0.4238 0.3647015543756236 -4.648506985216653 -16.602795659896543 0 0 -16
2335 839 3 -0.8476 -0.1058273337324232 -3.7666213582000796 -16.57312085062969 0 0 14
2336 839 4 0.4238 -0.9838016069441127 -3.841196760125318 -17.04598526620082 0 0 124
777 319 4 0.4238 -1.7293116424073856 -5.1150985702048075 -18.534038985867777 0 0 -153
775 319 3 -0.8476 -1.2287077385297869 -5.477788618154148 -19.320074444599964 0 0 26
184 122 3 -0.8476 2.109223570500002 -5.854928989674153 -16.11913553921914 0 0 21
186 122 4 0.4238 2.389804589406341 -6.076285592106123 -17.05309247910938 0 0 20
2958 1046 4 0.4238 1.1877844339896921 -5.93088510219159 -14.637615706899968 54 1 -55
331 171 3 -0.8476 -1.274479051471871 -7.967170304170678 -14.335362634162308 0 0 0
4914 1698 4 0.4238 -1.0692981605841991 -3.117859252981207 -14.914582441819988 0 0 -108
3414 1198 4 0.4238 2.2039891056266088 -3.6925760630062046 -19.59195407413225 0 0 -21
5629 1937 3 -0.8476 2.8427743592935943 -6.494063057229162 -18.809480424928008 -41 0 -12
5630 1937 4 0.4238 2.8585316971309447 -7.289232541085391 -19.41566305327638 52 0 76
436 206 3 -0.8476 2.8981365267474226 -8.51149845797194 -14.37916639079668 0 0 -9