LAMMPS data file via write_data, version 23 Jun 2022, timestep = 7500000

6066 atoms
4 atom types
4000 bonds
1 bond types
2000 angles
1 angle types

-19.873438629046465 19.873438629046465 xlo xhi
-19.873438629046465 19.873438629046465 ylo yhi
-19.873438629046465 19.873438629046465 zlo zhi

Masses

1 22.99
2 35.423
3 15.999
4 1.008

Bond Coeffs # harmonic

1 517.63 1

Angle Coeffs # harmonic

1 37.9505 109.47

Atoms # full

1273 469 3 -0.8476 -15.481548599491882 -16.64447173893506 -16.024580944048395 -16 -14 0
1275 469 4 0.4238 -16.225530243571956 -17.30903182158079 -16.09424098409388 5 -3 0
1274 469 4 0.4238 -14.99068041043017 -16.601238527792134 -16.894741675134654 9 -36 0
210 114 4 0.4238 -17.331942409930065 -14.874708514536557 -15.745717297091526 -15 -67 0
2080 738 3 -0.8476 -16.59293586089855 -15.311405107289954 -19.477026555714865 -30 3 -52
984 372 4 0.4238 -14.930101483476202 -17.826798117644646 -19.38548307245902 -15 -110 140
4813 1649 3 -0.8476 -17.451657629212086 -18.621632016067675 -16.133733907037165 2 8 -12
4814 1649 4 0.4238 -18.40453655944771 -18.521691517259235 -16.420150205116308 -2 90 -3
982 372 3 -0.8476 -14.358020950606239 -18.15039610702598 -18.631819704816376 11 -37 -80
4815 1649 4 0.4238 -17.418201712443544 -18.847810154077614 -15.160222590688916 -15 -2 -33
4713 1615 4 0.4238 -15.20795767401777 -14.67710051576954 -18.487322717057385 -9 0 52
209 114 4 0.4238 -18.27394166895321 -14.312286831645794 -14.536194254809715 -50 -6 0
4711 1615 3 -0.8476 -14.37574603726821 -14.347169087429457 -18.04171107737259 0 0 16
2082 738 4 0.4238 -17.04138909207475 -16.204643123954344 -19.50889426784031 -28 -8 76
4917 1683 4 0.4238 -15.076712899847013 -19.689462005762294 -17.894547872580315 25 -34 -34
1140 424 4 0.4238 -19.656429679549284 -17.24939049144891 -19.762936665792054 62 -38 -83
2973 1035 4 0.4238 -14.194483060472816 -16.16754280647582 -15.001780278160766 -56 -20 -20
4712 1615 4 0.4238 -13.604872977955559 -14.927927753493536 -18.303387260425993 19 0 -29
983 372 4 0.4238 -13.583886736719593 -17.52912234897508 -18.510427377153473 84 118 218
1968 700 4 0.4238 -11.493834521919442 -16.292562008595375 -18.190105648769883 64 11 54
1966 700 3 -0.8476 -12.335726735533237 -16.283439395518748 -18.729674271073293 -10 1 4
4894 1676 3 -0.8476 -9.743021045238402 -16.78934812274062 -17.446657013042657 0 -43 -35
4895 1676 4 0.4238 -9.700183548937531 -17.743886008696542 -17.151660822478146 0 96 42
4896 1676 4 0.4238 -9.017018586351732 -16.26872417920961 -16.99735594170721 0 1 -51
2914 1016 3 -0.8476 -10.447638356969604 -19.524387273062878 -18.926633790040107 0 -12 17
4668 1600 4 0.4238 -9.210353348044183 -17.650818694928848 -19.552553912299512 62 25 -29
3125 1086 4 0.4238 -11.711626484642208 -18.7512326431615 -14.402662079520143 0 -33 -5
1967 700 4 0.4238 -12.171165713128362 -15.812239122860218 -19.596213354654193 99 -33 -108
2916 1016 4 0.4238 -9.502516303884766 -19.54555514502821 -18.60060222897356 0 48 23
4044 1392 4 0.4238 -8.089648810810983 -18.44281700501053 -14.96216478490951 0 -27 -61
4792 1642 3 -0.8476 -8.278434630929862 -19.310436632668953 -17.04437052105473 1 -9 -1
402 178 4 0.4238 -6.624995596883726 -15.41336889969637 -15.755245472233367 0 -75 126
1161 431 4 0.4238 -6.493845517727859 -15.33538046302337 -18.539666315294895 0 7 -33
400 178 3 -0.8476 -6.990763295581032 -15.137418518560812 -16.64410210223949 0 -62 21
3504 1212 4 0.4238 -4.776816816130159 -18.56653002451791 -16.983188463376536 0 6 222
5619 1917 4 0.4238 -3.712394053038215 -16.104801735530636 -16.746908805300002 0 -59 0
3502 1212 3 -0.8476 -5.490580529962358 -19.134856136063764 -17.39251327622952 0 2 97
5617 1917 3 -0.8476 -3.415098488670355 -17.03441292891661 -16.52910522826708 0 43 0
3605 1246 4 0.4238 -5.555690108874218 -18.576746446864572 -19.03232837111176 40 -14 -56
4793 1642 4 0.4238 -7.291708412175347 -19.258000642241154 -17.198068513233867 -128 4 -1
1159 431 3 -0.8476 -6.626163655585537 -15.698243677848467 -19.46206684062775 0 5 -38
5618 1917 4 0.4238 -3.4696018715497745 -17.178910170035554 -15.541102218668284 2 69 0
5032 1722 3 -0.8476 -3.9560307346058203 -14.223364031985469 -16.867578976047913 0 -20 -9
4667 1600 4 0.4238 -8.01425926057691 -16.573211944765784 -19.82595679055952 20 24 -123
1938 690 4 0.4238 -2.5163737632516003 -16.973382626567016 -18.0865563101016 0 -40 0
2088 740 4 0.4238 -2.0731133200250795 -15.067265333443506 -18.992051096187808 0 0 116
1936 690 3 -0.8476 -2.0679605001323162 -16.867974745499293 -18.974145607106745 0 -111 0
169 101 3 -0.8476 0.5728517132458679 -16.290900914407597 -18.89462406032208 0 -6 55
170 101 4 0.4238 -0.4084996183942818 -16.48217927600395 -18.91368333857926 0 -92 58
4154 1429 4 0.4238 1.5479900236291382 -16.58571775814347 -17.199276618954965 0 -5 5
4155 1429 4 0.4238 1.1095759507319451 -17.238099389609452 -15.767906837732282 0 6 -27
4153 1429 3 -0.8476 1.8740663395523716 -17.078343493331353 -16.392434040920687 0 35 0
2102 745 4 0.4238 -1.1703935193093846 -19.11573145328835 -14.81346777135252 24 -94 0
1748 627 4 0.4238 -0.455403777353287 -19.099587904613486 -17.91229716032034 32 -35 -271
171 101 4 0.4238 1.008442202745539 -16.703419068880955 -19.69468048552234 0 -64 227
3292 1142 3 -0.8476 0.047469405606622585 -17.28143863969889 -14.392037371027273 21 -29 5
1937 690 4 0.4238 -2.332920576564236 -17.623527607520295 -19.573258344743813 0 -79 8
1747 627 3 -0.8476 0.0741195067016502 -19.77889073795785 -17.40420966673135 -27 127 -18
2101 745 3 -0.8476 -1.8370281307343965 -19.84800784682326 -14.952642916106745 -41 -34 0
3293 1142 4 0.4238 -0.7843489022458126 -16.890385472955014 -14.785935965866933 -80 -5 -7
2600 911 4 0.4238 2.8262082576792973 -18.495813451346894 -16.315483696588828 0 0 108
2103 745 4 0.4238 -2.5054643242358625 -19.836005812921808 -14.208970127620134 20 -48 0
3005 1046 4 0.4238 3.1375137433704876 -19.475295518583494 -14.501239410043688 1 21 56
2231 788 4 0.4238 3.9730483740499216 -15.634357774545006 -15.460984364606544 0 11 0
3497 1210 4 0.4238 5.9546922234489035 -18.32825663571621 -17.61868242661204 0 0 -11
3496 1210 3 -0.8476 5.2649653190892565 -18.6994288647476 -18.240380147441847 0 0 -77
3498 1210 4 0.4238 4.408262265296719 -18.83777512073025 -17.74346943369695 0 0 -27
2230 788 3 -0.8476 4.791865977169662 -15.067942526953917 -15.55431982771083 0 0 0
4036 1390 3 -0.8476 7.388221399407541 -17.757855953343388 -16.93191737193725 -10 -23 0
4037 1390 4 0.4238 7.5914820565241525 -16.798546412267303 -16.735931832362237 13 -57 0
2599 911 3 -0.8476 3.5087630523431965 -19.226642438162006 -16.31265904068128 0 -85 5
3076 1070 3 -0.8476 7.555414625564368 -14.648955437903501 -18.719945719532667 6 14 6
3078 1070 4 0.4238 6.821373524085924 -15.213259195656187 -19.097762459521693 -13 53 -22
2232 788 4 0.4238 4.902311631188554 -14.796701000593746 -16.510473496396628 0 -2 0
1527 553 4 0.4238 8.029198520103911 -19.21386633972425 -15.860446815810736 0 39 35
4038 1390 4 0.4238 7.924861330499522 -18.057887699170074 -17.720586228911316 -7 -63 -4
3077 1070 4 0.4238 7.733688635198911 -14.922938468807667 -17.774878556854688 16 148 265
4718 1617 4 0.4238 5.603687042827452 -17.565101343691005 -19.457084439868254 0 16 86
1970 701 4 0.4238 8.67225791395106 -16.711853270019084 -19.382836118172534 -48 -41 2
1517 550 4 0.4238 8.828124274878347 -14.614933900492304 -15.764049855265325 -12 0 131
1516 550 3 -0.8476 8.845930377431745 -15.552794845648684 -16.110605294367907 -5 0 47
1518 550 4 0.4238 9.654586565255734 -16.02331740499924 -15.757498560721414 5 0 -253
1969 701 3 -0.8476 8.759951819239712 -17.70337632386268 -19.286961737760727 -49 -3 0
2688 940 4 0.4238 11.91236298482409 -17.067657999371953 -16.63687647647883 20 -66 0
2686 940 3 -0.8476 11.990078188473932 -16.39050901274745 -17.368607463574605 -47 -5 0
5263 1799 3 -0.8476 12.851506941741059 -18.111348120383045 -15.314225155680163 -49 0 40
2687 940 4 0.4238 12.441997873449925 -15.570533005239886 -17.017310977808002 121 85 0
788 307 4 0.4238 11.166560414333665 -17.692726312715862 -15.049512341176419 0 32 46
5264 1799 4 0.4238 13.26830972995458 -17.772865645082106 -14.470599006958688 18 0 6
5265 1799 4 0.4238 13.468391351266542 -18.765717655930878 -15.751551283187402 145 0 155
2126 753 4 0.4238 10.66209717551824 -15.195042064551348 -18.43773863659634 -46 -120 -17
2125 753 3 -0.8476 10.35098350009486 -14.619003386694965 -19.193640966075797 24 6 -42
789 307 4 0.4238 9.839773252865845 -18.47602454738552 -14.50848882921458 0 -86 146
787 307 3 -0.8476 10.217838378230626 -17.583120824178735 -14.753009067752158 0 32 -9
4206 1446 4 0.4238 13.058037067256455 -16.86569714855288 -18.89138318979954 0 -41 -27
5878 2004 3 -0.8476 13.598682847013263 -14.274602415126521 -16.26016494734087 23 0 41
5247 1793 4 0.4238 14.152069602872515 -19.703071607388768 -18.091100213886445 54 14 -5
1971 701 4 0.4238 9.65105117256562 -17.99439675336346 -19.635170221897972 23 27 5
2127 753 4 0.4238 9.364537843159363 -14.473527208013692 -19.117726689072573 -9 -61 -14
4204 1446 3 -0.8476 13.358763682429403 -16.818924173800927 -19.84394621238966 0 -15 28
5737 1957 3 -0.8476 19.854134748150933 -19.111120554920575 -17.218954930750336 -44 215 11
5880 2004 4 0.4238 14.389143870471866 -14.885888107947537 -16.298923740533414 -119 0 12
1934 689 4 0.4238 19.70518535141874 -18.98843828688023 -15.550276791569404 47 -93 -39
3910 1348 3 -0.8476 15.246695753692581 -18.633875664513074 -17.47409329322095 -80 -63 0
3911 1348 4 0.4238 15.592082103205964 -17.72939491055569 -17.22384768397405 32 80 0
5738 1957 4 0.4238 19.09098638446647 -18.586940449528804 -17.59689647078974 105 -75 -94
1474 536 3 -0.8476 18.255593015201246 -17.609860447612338 -19.176082879451524 41 0 11
5095 1743 3 -0.8476 15.962829685281386 -16.245397659236673 -16.556908885649282 6 5 0
5097 1743 4 0.4238 16.696695596562982 -15.845609434338204 -17.106100939827858 103 -93 0
5096 1743 4 0.4238 16.331802363151652 -16.55029556448057 -15.678901525420018 -49 -98 4
2968 1034 3 -0.8476 17.766190066351697 -14.948161443016591 -18.169834464053576 -25 1 16
3912 1348 4 0.4238 15.751800412374479 -19.334649138520938 -16.970321687959874 -38 69 0
1933 689 3 -0.8476 19.357405721320077 -19.015233976322154 -14.613083449401332 31 -55 9
2678 937 4 0.4238 16.260230700760253 -19.43155755649915 -14.94620893749361 0 9 -39
1675 603 3 -0.8476 17.14269561250745 -17.912314045037416 -14.370623676096661 41 -39 0
1476 536 4 0.4238 17.6898393711962 -16.800520714211086 -19.333856360430076 5 0 14
2969 1034 4 0.4238 17.224381355273852 -14.290996628655169 -18.693837065985957 -36 1 -21
2970 1034 4 0.4238 18.504067871368488 -14.468440707763975 -17.695066115821636 60 1 -67
1676 603 4 0.4238 18.083244189416618 -18.239430739790027 -14.462073733408308 -33 18 0
1475 536 4 0.4238 17.836956637651866 -18.401193723423876 -19.621657268449862 -71 0 83
208 114 3 -0.8476 -17.93339511192352 -14.129240640841294 -15.458432244601827 0 -24 0
5306 1813 4 0.4238 -19.162356094710066 -13.533708518815994 -16.759473587361178 77 0 31
265 133 3 -0.8476 -17.05776023958857 -9.837110022834546 -17.19218824427082 -44 0 23
267 133 4 0.4238 -17.305072693575983 -10.049317809029077 -16.246775817391228 76 0 -41
2563 899 3 -0.8476 -16.437223176665796 -11.886196176217279 -15.042108320742551 13 0 19
2564 899 4 0.4238 -15.499564026313951 -11.954663823993663 -15.382855162554335 -6 0 5
2565 899 4 0.4238 -16.970616682344225 -12.663590861168766 -15.375500028188585 -124 0 85
266 133 4 0.4238 -17.795289928957164 -10.126099772534225 -17.802545340986434 -74 0 38
3944 1359 4 0.4238 -15.290898868048954 -9.77046915261245 -17.48446405517499 2 -12 18
2947 1027 3 -0.8476 -18.74639284890426 -10.13766063644012 -19.573807123012667 -37 36 15
5307 1813 4 0.4238 -19.316677776126358 -13.134036980034946 -18.33525084978262 -38 0 -5
914 349 4 0.4238 -17.518499246297797 -13.767575889927954 -19.804231769920797 32 0 -30
913 349 3 -0.8476 -18.220638556329153 -13.055924791324982 -19.827772269778848 -21 0 1
3943 1359 3 -0.8476 -14.319198295094122 -9.75726607503225 -17.720310820404006 5 -20 29
5305 1813 3 -0.8476 -19.814290414789834 -13.345973598062718 -17.49414172134285 -30 0 29
3945 1359 4 0.4238 -14.189825135385794 -9.249660952312373 -18.572132182148476 -10 -47 -51
3867 1333 4 0.4238 -10.665075258593735 -14.158028021325494 -17.547928111096127 0 0 -24
5601 1911 4 0.4238 -14.0869459014178 -12.939436008180744 -16.779856500681973 0 1 0
5600 1911 4 0.4238 -14.146806132582595 -11.309698790568225 -16.863527322065405 0 1 0
1494 542 4 0.4238 -9.693310899278588 -13.577820521833157 -15.769995574507812 -55 -45 0
3866 1333 4 0.4238 -9.256726959336733 -14.068225687736133 -18.369583281536922 0 0 -9
5599 1911 3 -0.8476 -13.885943795656756 -12.088979417442527 -16.293725739469043 0 1 0
3865 1333 3 -0.8476 -9.736151007885853 -13.78789161064023 -17.53797879409361 0 0 -5
4757 1630 4 0.4238 -12.964184696267635 -9.073006378484678 -16.59065801753334 -39 -76 3
1781 638 4 0.4238 -10.946975185731205 -10.893937936171044 -17.294062457303212 -46 0 -73
1780 638 3 -0.8476 -9.968138473693008 -10.847802363911903 -17.094687339041617 21 0 40
1782 638 4 0.4238 -9.56747923992711 -11.760158371332 -17.178824791975956 -88 0 88
4756 1630 3 -0.8476 -12.059995059898498 -8.706572017917424 -16.371188267153816 14 27 63
4891 1675 3 -0.8476 -8.771655085652268 -8.791551334306677 -18.49950493053637 0 -116 -1
87 73 4 0.4238 -12.345137027819144 -11.95003329906613 -14.90008912652519 0 -66 -125
4892 1675 4 0.4238 -9.259325356211939 -9.542964753307421 -18.055032617830257 10 -2 56
4562 1565 4 0.4238 -10.06189900294171 -9.126388046574467 -15.671456120469841 0 0 -79
4561 1565 3 -0.8476 -9.643755118609429 -8.853004288393457 -14.80518935826839 0 0 -36
1492 542 3 -0.8476 -9.634343675671833 -13.628284535412561 -14.773011987731879 -179 -27 0
1493 542 4 0.4238 -10.437258572495363 -13.18997566073415 -14.369015657627953 28 -61 0
1813 649 3 -0.8476 -12.05610111965956 -11.064923692622502 -19.84216426327504 -1 -30 12
1602 578 4 0.4238 -12.018431140146962 -12.875756690814717 -19.80241214004828 -162 -19 -21
401 178 4 0.4238 -6.961995054108922 -14.14083542272438 -16.721536223317955 0 89 -46
5033 1722 4 0.4238 -4.874814166066081 -13.990406197828174 -17.186275806624355 0 76 6
3855 1329 4 0.4238 -7.860334265517292 -10.045470762598312 -16.01376507875017 0 155 0
3390 1174 4 0.4238 -6.522985518664942 -11.828089560115187 -16.710111518652496 0 0 -57
3388 1174 3 -0.8476 -6.344474472683242 -12.616722818201602 -17.298491893283657 0 0 20
3853 1329 3 -0.8476 -7.034790789715185 -10.587460593702732 -15.856522891984673 0 -62 0
3854 1329 4 0.4238 -6.654265906815899 -10.36259428634804 -14.959507804051274 0 82 0
2419 851 3 -0.8476 -4.655413260494142 -9.846726826627043 -17.62260490423894 0 0 -89
2420 851 4 0.4238 -4.980171453045419 -10.418710206406809 -18.37584333045508 0 0 133
2421 851 4 0.4238 -5.3322427875183545 -9.136984568673178 -17.42723789609172 0 0 17
3389 1174 4 0.4238 -5.858266021663548 -12.31692895396017 -18.119299424808613 0 0 27
2520 884 4 0.4238 -4.498668693014309 -11.401375036074617 -14.993361308719335 0 0 4
2518 884 3 -0.8476 -3.7369668795738527 -11.808292596454114 -15.497572926035012 0 0 11
2519 884 4 0.4238 -3.701053367338925 -11.419457859004732 -16.41818043367727 0 0 0
5034 1722 4 0.4238 -3.7735487243655705 -13.753157944648242 -16.00409384570674 0 1 32
3038 1057 4 0.4238 -3.139133754659368 -8.901806325531442 -17.555822635265834 0 0 -25
3817 1317 3 -0.8476 -5.141252560380207 -11.583468909328609 -19.653056318245913 12 0 4
2087 740 4 0.4238 -2.859213745451322 -13.837404528519642 -18.25985233932455 0 0 -30
2086 740 3 -0.8476 -2.143739547945578 -14.072534618210769 -18.91773572676566 0 0 14
235 123 3 -0.8476 0.6396802254057056 -12.966674441814366 -14.525464299629402 0 -28 -1
236 123 4 0.4238 0.33936398822425085 -13.025967893930748 -15.477459405605762 0 0 -12
4281 1471 4 0.4238 -0.5635280603386654 -13.310589342229626 -18.225531323633206 26 0 0
4279 1471 3 -0.8476 0.1865397127172289 -12.733968445006381 -17.901636978748016 76 0 0
4280 1471 4 0.4238 -0.08706293303286095 -11.773302026572013 -17.94920588272074 -73 -6 0
1796 643 4 0.4238 0.6207146900428236 -9.401654605957663 -18.30010556071429 24 43 51
1795 643 3 -0.8476 -0.20756035757215338 -9.951734974809034 -18.406748059661368 9 10 99
1797 643 4 0.4238 -0.9729976297624348 -9.492521234840975 -17.95593866237084 17 11 -67
4011 1381 4 0.4238 2.0381074445979928 -12.372087611925279 -18.383738675586248 0 0 24
3814 1316 3 -0.8476 -1.1442437856388255 -8.615077726713654 -14.982891912626977 0 29 24
237 123 4 0.4238 1.5911491869874732 -13.266663555270226 -14.456809618971034 0 46 88
990 374 4 0.4238 -0.12800306313241058 -9.766914287305111 -14.132826251306053 -3 -1 -45
5757 1963 4 0.4238 3.0750669992468516 -8.88550660958925 -17.837103355935493 0 0 29
4010 1381 4 0.4238 3.032714189433759 -12.209969862547561 -19.6686910319935 0 0 84
4009 1381 3 -0.8476 2.967773055883348 -12.143926947289444 -18.672989159787065 0 0 -26
4955 1696 4 0.4238 5.504670007034959 -13.5810057578234 -18.552193558137564 -87 -29 57
5756 1963 4 0.4238 3.323756803538258 -10.494686142888972 -17.960887270222123 0 0 40
5755 1963 3 -0.8476 3.6833877500391052 -9.63919899502818 -17.588316869888754 0 0 -13
5546 1893 4 0.4238 5.994847077700465 -12.924127431847412 -15.3692341098625 0 -20 -20
5545 1893 3 -0.8476 6.502837295810854 -12.147721332216783 -14.99621947551051 0 -9 0
4954 1696 3 -0.8476 4.8496013834913 -13.918189798419311 -17.87603339214396 -6 -106 0
4956 1696 4 0.4238 3.9998875955506237 -13.39556352172773 -17.94567247834195 50 -40 62
1375 503 3 -0.8476 5.973325649929396 -9.509356444260632 -19.14216187839818 7 0 11
1377 503 4 0.4238 5.198623913737626 -9.657534790055664 -18.527442078948702 67 0 38
1674 602 4 0.4238 7.369971963113002 -10.375169005627377 -15.521716862843688 0 0 -100
3173 1102 4 0.4238 3.9383376942011434 -9.424937370413259 -15.864985647139454 0 24 -41
3172 1102 3 -0.8476 3.9057986980433332 -8.953503973422048 -14.98368444844897 0 31 85
1672 602 3 -0.8476 8.217237150576537 -9.844282836946102 -15.50435020326048 0 0 31
647 260 4 0.4238 8.044200367341604 -12.896179058437054 -14.740433673027535 28 0 -74
2040 724 4 0.4238 8.22639249250444 -8.752221302979162 -17.156409609422493 0 0 67
1376 503 4 0.4238 6.030998644420789 -10.265538310375828 -19.793976930906428 -47 0 75
3033 1055 4 0.4238 7.164390123574395 -8.640197303235919 -15.156777146153244 0 0 -28
3174 1102 4 0.4238 2.9792770672099147 -8.614147912508972 -14.821218584159572 0 93 228
1673 602 4 0.4238 8.967811044274963 -10.40276080870318 -15.857537445388939 0 0 234
5879 2004 4 0.4238 13.620683445115205 -13.755046836014733 -15.406010874878683 85 0 -110
940 358 3 -0.8476 10.318305983489795 -11.269913466643791 -16.6628157238724 19 4 16
942 358 4 0.4238 10.404761812801715 -11.455116869235823 -17.641705465082612 19 0 -3
941 358 4 0.4238 11.193766131198243 -11.444153854112395 -16.212027703343953 150 16 5
3091 1075 3 -0.8476 11.21592464890596 -11.9773185838564 -19.101884601967544 -33 -31 -5
3092 1075 4 0.4238 10.991428909117339 -12.951294682240668 -19.133065670640264 -15 96 62
1702 612 3 -0.8476 13.606575687586734 -12.971050517130742 -18.740831963755024 23 28 -69
1704 612 4 0.4238 13.711161003557315 -13.121489560821315 -17.757760235019393 28 100 -83
373 169 3 -0.8476 12.393046843571927 -11.318653472893335 -14.734854997243476 27 24 -8
646 260 3 -0.8476 8.999727200863623 -13.174495562999988 -14.642922525337523 -2 0 -64
648 260 4 0.4238 9.593229624767218 -12.472188816481811 -15.036012995008393 37 0 -31
1703 612 4 0.4238 12.668435745693332 -12.685275960718357 -18.936347622953008 -24 -56 -33
374 169 4 0.4238 12.651228622410386 -10.355530378073977 -14.659106451272594 44 -46 58
375 169 4 0.4238 13.158852982310194 -11.892797134830056 -14.445199741283147 36 -45 50
568 234 3 -0.8476 13.21949353273039 -8.90090346901733 -14.315441801408168 0 20 28
3632 1255 4 0.4238 14.220514659826042 -11.37571674196035 -18.8329939421495 0 0 18
1994 709 4 0.4238 14.750519684389962 -9.391994811106988 -15.384206699537858 80 22 64
1995 709 4 0.4238 14.644986610106761 -9.773766974214322 -16.96842247243949 -70 42 -153
1993 709 3 -0.8476 15.241733701433851 -9.77607157314036 -16.165996000914504 13 16 38
5564 1899 4 0.4238 19.319402270353628 -12.421402959790983 -16.10844458521376 -25 0 0
3631 1255 3 -0.8476 14.592090085751707 -10.448838213526656 -18.886172244548312 0 0 15
1821 651 4 0.4238 16.147691109264887 -10.80578931416087 -15.031287859885467 0 0 22
5563 1899 3 -0.8476 19.28555074037292 -11.852884191863597 -15.286471046463992 3 18 0
5565 1899 4 0.4238 18.332800731068588 -11.713653113921943 -15.016504079263813 -8 -7 0
3633 1255 4 0.4238 15.590651277269501 -10.491412705581785 -18.918775754890284 0 0 -128
1819 651 3 -0.8476 16.698555624479813 -11.542460825917944 -14.639032414473162 0 0 21
853 329 3 -0.8476 17.221890975138212 -11.340071572571162 -19.273422794900117 -65 0 -43
855 329 4 0.4238 17.993010239347377 -11.41201170658032 -18.640809253690293 36 0 53
314 149 4 0.4238 15.223358951479511 -13.54755022384432 -19.722187240470184 0 9 -9
2210 781 4 0.4238 16.587769038643636 -8.637196348749633 -16.46704451101606 7 0 -30
5555 1896 4 0.4238 -17.083951854914183 -8.059698571472614 -17.78752349333177 -37 0 9
1875 669 4 0.4238 -17.24927106395294 -5.4755885758659275 -17.449992814162755 -1 0 116
1873 669 3 -0.8476 -17.820301203250892 -4.698875273045644 -17.184208947555142 43 0 -41
1874 669 4 0.4238 -18.301589372010845 -4.914328998652464 -16.334537585612303 58 0 -81
4640 1591 4 0.4238 -15.761613647152515 -6.835987301286904 -19.024433890426707 0 40 52
5554 1896 3 -0.8476 -17.109604665723676 -7.060520151706038 -17.818899570407158 -44 0 -54
5556 1896 4 0.4238 -18.055524531427043 -6.748437841607536 -17.730354190494296 75 0 -66
4639 1591 3 -0.8476 -14.885267890856428 -6.7133289468573105 -19.49023889393907 0 9 31
2056 730 3 -0.8476 -18.886076438667438 -3.06822736527643 -19.57297917002851 0 0 1
879 337 4 0.4238 -16.69469396626223 -3.9372150386204 -18.347194580793104 58 0 -64
877 337 3 -0.8476 -15.93266592560824 -3.3980916786955384 -18.7058872591591 -53 0 5
4838 1657 4 0.4238 -14.974138892497264 -4.084856078331343 -17.411413530364754 22 0 98
2166 766 4 0.4238 -18.2722364636014 -2.9283513464205435 -16.897635671916483 -7 0 0
1686 606 4 0.4238 -19.611372899305863 -4.78570151580131 -19.669514575044968 -79 0 -42
4641 1591 4 0.4238 -14.434554587495613 -5.891612549927359 -19.141469513569003 0 122 -32
4837 1657 3 -0.8476 -14.366316480762263 -4.573901707461271 -16.785804775695095 -53 0 -11
658 264 3 -0.8476 -19.69320780669604 -4.941360906895131 -15.080075270207498 -89 0 0
5380 1838 3 -0.8476 -14.284840707742365 -3.0040992436059377 -14.520457554920036 12 -1 7
1685 606 4 0.4238 -19.776011403812703 -6.21881426895896 -18.904198071325798 -42 0 -4
4839 1657 4 0.4238 -14.3438765505016 -4.100866250802755 -15.905047189442708 -138 0 33
2035 723 3 -0.8476 -19.848224419283923 -6.832685070828561 -17.264243384989207 23 -15 6
4893 1675 4 0.4238 -9.384511988001911 -8.007263380481044 -18.59593566654078 0 37 -255
4758 1630 4 0.4238 -12.155287022424195 -7.780492563620905 -16.006090563029275 48 -117 15
690 274 4 0.4238 -13.40481343345265 -5.854007346882694 -15.890109424833083 127 3 -6
688 274 3 -0.8476 -12.480781360657312 -6.215226627888615 -15.764865851422677 -80 -1 0
4362 1498 4 0.4238 -11.28505327540188 -4.219679552430097 -18.146614613916178 21 -189 -39
4361 1498 4 0.4238 -12.888615486125973 -4.4409187035668145 -18.3617145617898 -61 43 -13
4360 1498 3 -0.8476 -11.980426899209109 -4.815606682324322 -18.548269375791733 15 118 -63
4843 1659 3 -0.8476 -11.071112976900103 -7.368102274841284 -18.71643501677881 19 28 -18
4845 1659 4 0.4238 -11.491832928321019 -6.461526427628958 -18.68302358197326 -7 75 42
2020 718 3 -0.8476 -10.667381294770028 -4.132549198943538 -15.127900467351013 -48 0 -63
2021 718 4 0.4238 -9.810140019660155 -4.399889939284786 -15.567975878186388 -52 0 -22
2022 718 4 0.4238 -10.942535137718373 -3.228706786629545 -15.455557782608391 71 0 -40
4844 1659 4 0.4238 -11.554655685437917 -7.983118699829398 -18.093585263378863 -7 22 24
689 274 4 0.4238 -11.836789668568768 -5.456524987277838 -15.666645795630332 -104 20 4
4239 1457 4 0.4238 -8.775113661980866 -4.019108643145636 -19.30477008251717 0 0 2
4238 1457 4 0.4238 -8.6500153758272 -5.22569433412893 -18.211551031728874 0 0 58
4237 1457 3 -0.8476 -8.468647470960486 -4.959653240421359 -19.15829696020608 0 0 12
3533 1222 4 0.4238 -7.479736174146658 -8.24040882643695 -17.80870084446407 22 0 45
3534 1222 4 0.4238 -7.101628760109948 -7.07987872714478 -16.723882341663593 -37 0 3
2308 814 3 -0.8476 -8.284525669763607 -5.087196868954293 -16.326775504255366 0 -15 18
2310 814 4 0.4238 -7.8702527292371425 -5.57728233202936 -15.559837267581992 0 71 -52
5359 1831 3 -0.8476 -4.409768211271119 -6.5683309001097605 -16.154940523518658 0 21 0
5361 1831 4 0.4238 -4.916120557900095 -6.9285933953075585 -15.371474968714502 0 2 0
3532 1222 3 -0.8476 -6.7632484695650525 -7.616309385199183 -17.49701941856191 -5 0 21
2309 814 4 0.4238 -7.77131832705787 -4.246937901400999 -16.50165582921896 0 -14 -46
5942 2025 4 0.4238 -4.063384180678236 -5.005881489099863 -16.33136399499106 -2 0 -97
1770 634 4 0.4238 -3.702640291265028 -4.028036007605806 -18.021557889696947 0 0 71
1768 634 3 -0.8476 -3.641070701717536 -4.277711797076822 -18.987928056802772 0 0 28
5360 1831 4 0.4238 -3.680211957534317 -7.206030556990191 -16.402098744262233 0 49 0
5941 2025 3 -0.8476 -3.814527982577074 -4.047910530684882 -16.474060612060395 -17 0 2
1769 634 4 0.4238 -4.431870226424508 -4.8359212018561175 -19.239002641455098 0 0 27
5943 2025 4 0.4238 -3.577616021918494 -3.630816214028525 -15.59661824477395 -20 0 64
4887 1673 4 0.4238 -5.611671778578876 -6.73872598556843 -18.726293091265088 0 0 -24
4885 1673 3 -0.8476 -5.770861114379155 -5.969589325928058 -19.34523379271024 0 0 -23
3118 1084 3 -0.8476 -6.844813859910395 -6.251326433372457 -14.522572030311865 0 0 -10
4886 1673 4 0.4238 -6.750902528334843 -5.776234998133459 -19.39141781134709 0 0 -27
5482 1872 3 -0.8476 -2.8510534910897425 -2.870843601401496 -14.223837988636179 0 -21 29
5577 1903 4 0.4238 -6.7328766535655 -2.926193217851823 -18.17428076987276 -46 0 -18
2873 1002 4 0.4238 -2.896646500766103 -6.081167243670871 -19.593280222961667 -26 1 -33
3815 1316 4 0.4238 -1.4020750277969274 -8.453313681623438 -15.935444391988339 0 22 41
3816 1316 4 0.4238 -1.9648989130758043 -8.61880348652534 -14.411479272498658 0 -65 21
3037 1057 3 -0.8476 -2.4102514067670646 -8.226741797356196 -17.441724221133732 0 0 18
3039 1057 4 0.4238 -2.378741455645916 -7.63132567623107 -18.244523570687754 0 0 112
2764 966 3 -0.8476 1.6111116705372555 -7.725486017111676 -17.94651477842071 13 5 -44
2765 966 4 0.4238 1.6735376120991488 -6.987171004519637 -17.2749535192102 33 5 -150
2766 966 4 0.4238 1.6313377650035954 -7.339681072191601 -18.868874199691653 -1 0 -17
4590 1574 4 0.4238 2.1181119173906384 -6.711455945244899 -15.471516510521486 8 -73 38
4589 1574 4 0.4238 1.9460256834704455 -5.103055520720285 -15.2477735652003 46 -15 10
544 226 3 -0.8476 1.8482837791040183 -3.6075998852005844 -14.423172616866795 13 0 -18
2925 1019 4 0.4238 0.5923880272639034 -7.6583823884030116 -14.494427547024213 0 0 140
4588 1574 3 -0.8476 2.2715290542674764 -5.8098210826906875 -15.875889823386595 35 -44 -9
2872 1002 3 -0.8476 -2.3325755904209524 -6.865684417999076 -19.850878444386666 -2 1 -31
468 200 4 0.4238 -0.6203830118065923 -3.453006169232881 -19.718380798267255 0 0 -50
1454 529 4 0.4238 -2.479784698928932 -2.8814334238117096 -16.9192957304475 0 0 -102
546 226 4 0.4238 1.2468499115638294 -2.922505500405432 -14.834175123429157 -51 0 -63
2039 724 4 0.4238 7.1966909141653455 -8.508371181803748 -18.400145351060292 0 0 -38
2038 724 3 -0.8476 8.032726285373156 -8.185004952850047 -17.95688415596552 0 0 -20
662 265 4 0.4238 4.583783425963259 -4.998196758862941 -17.903742380060276 0 0 -5
661 265 3 -0.8476 5.055326689539454 -5.023516770974217 -18.785221809309487 0 0 -10
5329 1821 3 -0.8476 4.4062893209013 -4.107126331109512 -15.756603370214354 -13 1 24
5330 1821 4 0.4238 3.637004096296169 -4.745961929392164 -15.766057031837923 33 1 21
317 150 4 0.4238 5.776689104420089 -4.598772244837049 -14.621830671229302 -23 0 -5
3031 1055 3 -0.8476 6.53671196733855 -7.99976366879747 -14.714209309622298 0 0 -53
5331 1821 4 0.4238 4.087865121998856 -3.197957787690972 -16.02496634572468 -30 1 -77
3032 1055 4 0.4238 5.595951223116748 -8.31495284125168 -14.839216900198116 0 0 -49
4514 1549 4 0.4238 8.076909733568774 -4.1105841022076675 -17.385180913634084 0 0 0
4515 1549 4 0.4238 7.833698125383817 -5.606042364110415 -17.99434381562259 0 0 0
4513 1549 3 -0.8476 8.348021050376747 -4.75500142057983 -18.100181491264046 0 0 0
2175 769 4 0.4238 5.983137907355288 -3.6462908323371623 -16.661814210473153 1 -73 -30
1707 613 4 0.4238 4.956089279349227 -6.499576256435851 -19.51151982139887 0 0 -16
663 265 4 0.4238 4.475982396686093 -4.606015097602764 -19.48526068165918 0 0 46
3794 1309 4 0.4238 8.304583409310315 -3.9000751738558157 -19.608350867824484 0 0 90
1706 613 4 0.4238 5.0442182239904385 -8.119014517064066 -19.701991666346466 0 0 -21
318 150 4 0.4238 6.459678982276138 -6.058586774074395 -14.358975452498166 9 0 37
2173 769 3 -0.8476 6.642225593722268 -2.9108405399584574 -16.819030412585008 1 5 -42
422 185 4 0.4238 13.011477005055083 -7.3583179310037075 -15.437388106324677 0 10 94
348 160 4 0.4238 9.474844593588868 -7.826594240194294 -15.74817286284498 10 0 40
4182 1438 4 0.4238 10.300966086872647 -7.138946703578277 -19.096571559108074 0 0 -1
423 185 4 0.4238 13.151948228773017 -6.94038927647547 -17.0097209478532 0 43 -73
4180 1438 3 -0.8476 10.97414950998648 -6.967753796772469 -18.377184842312985 0 0 0
421 185 3 -0.8476 13.012871519664873 -6.5938525142340865 -16.082051377579965 0 -9 -16
347 160 4 0.4238 10.248287474926814 -6.790373726653382 -16.745499118022828 0 0 91
346 160 3 -0.8476 9.898012433905922 -6.923262978082276 -15.818327137054489 0 0 5
2426 853 4 0.4238 10.07314832566722 -4.066171416869248 -18.028939129859452 0 0 63
2425 853 3 -0.8476 11.02915390986752 -3.966961217091271 -17.752875355519116 0 0 -56