LAMMPS data file via write_data, version 23 Jun 2022, timestep = 5000000

6060 atoms
4 atom types
4000 bonds
1 bond types
2000 angles
1 angle types

-19.874796335011464 19.874796335011464 xlo xhi
-19.874796335011464 19.874796335011464 ylo yhi
-19.874796335011464 19.874796335011464 zlo zhi

Masses

1 22.99
2 35.423
3 15.999
4 1.008

Bond Coeffs # harmonic

1 517.63 1

Angle Coeffs # harmonic

1 37.9505 109.47

Atoms # full

1378 500 3 -0.8476 -14.512772908725774 -18.17840413723382 -15.311550401694186 -28 -144 -29
1379 500 4 0.4238 -14.269955437859707 -17.290298316436285 -15.701817575238778 -28 -145 93
3287 1136 4 0.4238 -13.741609647677755 -15.126569160660113 -16.51036080560047 -12 0 -56
310 144 3 -0.8476 -15.03482829465286 -17.39227318383742 -18.578765307155724 0 0 19
1397 506 4 0.4238 -15.885271714651417 -15.6109772092478 -17.98093828187245 0 1 -26
311 144 4 0.4238 -15.479091245635871 -18.152123816927407 -18.104152353547658 0 0 0
312 144 4 0.4238 -14.4884102980743 -16.86610011800303 -17.92717546610397 0 0 -5
1396 506 3 -0.8476 -15.897816897197352 -14.781170391176174 -18.538848328780954 0 1 -3
1380 500 4 0.4238 -15.39416392368445 -18.47448177611221 -15.679638374881304 7 61 -43
2187 769 4 0.4238 -17.548840850175743 -17.937567014590826 -16.680862528065564 12 29 -27
2185 769 3 -0.8476 -16.95107638689226 -18.737394218500864 -16.7352147723548 0 40 -18
127 83 3 -0.8476 -18.780577682647284 -16.933683293230217 -16.41996036402181 5 -4 6
2186 769 4 0.4238 -17.506611144367422 -19.568860793637555 -16.74188520537459 0 133 -49
1863 661 4 0.4238 -18.60548909571462 -13.920179638521384 -16.776629335333173 78 45 19
2503 875 3 -0.8476 -14.214613066214925 -13.643516185334047 -15.897718597535702 7 0 0
128 83 4 0.4238 -18.84640603483705 -15.939500144758133 -16.334711557912314 -161 21 5
3121 1081 3 -0.8476 -16.294222166760775 -13.932108082716155 -14.219032232316327 -37 0 23
1861 661 3 -0.8476 -18.832904545208002 -14.18214897964362 -15.838730454489363 -12 -21 -6
1920 680 4 0.4238 -17.3761748295845 -14.095312815447585 -18.33405190380175 0 -67 -91
3286 1136 3 -0.8476 -13.59694762236095 -16.062618956895758 -16.831115787611054 17 0 -40
5319 1813 4 0.4238 -19.35131133665664 -16.40913540629806 -19.044126645871984 54 0 56
3123 1081 4 0.4238 -17.257355149734693 -13.872293959790245 -14.481324318673582 -44 0 116
1398 506 4 0.4238 -15.128644480699581 -14.797379947363131 -19.177684383847396 -5 1 -20
5730 1950 4 0.4238 -13.804789040529872 -19.46689051554467 -19.33666618589532 0 24 -82
129 83 4 0.4238 -19.469666359854948 -17.364537032386487 -15.83727488420747 -17 -29 19
1918 680 3 -0.8476 -18.130086394022904 -13.475662355137956 -18.55234241425523 0 -52 46
1862 661 4 0.4238 -19.265081988726788 -13.41021816630039 -15.37252712378811 -10 72 -72
2505 875 4 0.4238 -15.001248142022346 -13.79512480598745 -15.299202537040543 68 0 0
4777 1633 3 -0.8476 -19.056786963457345 -19.649765882651 -14.716772517402699 -23 94 0
3122 1081 4 0.4238 -16.172187578223912 -14.680432354120796 -13.567021207493289 7 0 -58
4853 1658 4 0.4238 -19.394174388524597 -15.509397433789212 -14.311959034417255 83 -72 108
3708 1276 4 0.4238 -13.452177873474382 -19.693717573358168 -15.82034596271448 17 179 -40
3131 1084 4 0.4238 -18.05511518024257 -18.561047848605593 -13.530114417396655 65 16 20
3456 1192 4 0.4238 -19.86331611321485 -13.713833204967935 -18.958724641095113 -162 -26 -14
3288 1136 4 0.4238 -12.658710108475873 -16.343115841321634 -16.628552489827438 -4 0 -3
4000 1374 3 -0.8476 -11.720831610421826 -16.229054909136213 -14.530398354270776 1 0 -1
4001 1374 4 0.4238 -10.884165963740754 -15.709394633081772 -14.357355552387618 1 0 13
4002 1374 4 0.4238 -11.48333748410287 -17.153731003101328 -14.828006632684641 1 0 -7
2894 1005 4 0.4238 -10.94439923449612 -18.133009410919183 -16.9075666548697 109 0 56
2893 1005 3 -0.8476 -10.930832569511713 -18.302889659836797 -15.922195283721345 50 0 -3
2895 1005 4 0.4238 -10.207069591481027 -18.95850158940196 -15.706927584993581 43 0 97
5647 1923 3 -0.8476 -7.829838469644098 -16.519947120709574 -14.869737413378568 0 -1 0
4477 1533 3 -0.8476 -9.525065332216558 -14.57105728130859 -14.202982848645636 0 0 -3
5648 1923 4 0.4238 -8.516333858416656 -15.807347672980017 -14.725078734765315 0 -3 0
4579 1567 3 -0.8476 -11.00870575955118 -18.248643270167143 -18.456658536610703 0 8 48
4581 1567 4 0.4238 -11.589118187671952 -19.014996840278922 -18.73201944646755 4 21 53
4580 1567 4 0.4238 -11.153699542679954 -17.48002298890414 -19.079715271977957 0 -16 -5
1691 604 4 0.4238 -9.203268386082579 -19.138296001788767 -19.219078613416038 0 114 -53
5649 1923 4 0.4238 -7.916643398218248 -17.215999076283076 -14.15701264772694 0 -153 0
4478 1533 4 0.4238 -9.855155384118879 -13.96962053988587 -14.930523164702093 0 0 -27
1690 604 3 -0.8476 -8.524109575265804 -19.77629441139453 -19.58198602775012 0 45 -49
4479 1533 4 0.4238 -9.651473559066389 -14.12364602279899 -13.317632345725675 0 0 0
4167 1429 4 0.4238 -11.610079185796026 -19.023777048635484 -13.831932570888616 0 -51 37
3774 1298 4 0.4238 -7.019435169759052 -19.492429851832515 -13.960764725544468 -30 45 0
1020 380 4 0.4238 -7.247509312264204 -16.51471609830462 -19.60028661017623 0 -67 2
4806 1642 4 0.4238 -6.696759550098562 -15.53132310188615 -15.727482526466478 0 -63 -25
1424 515 4 0.4238 -13.122641828445616 -16.187669397513613 -13.557275623531412 17 9 -2
968 363 4 0.4238 -6.692204825893089 -19.69710998076612 -16.45911834953929 0 -26 8
1557 559 4 0.4238 -12.719459235146658 -13.43532449556286 -19.76464798592688 -58 0 1
967 363 3 -0.8476 -6.6381988551214635 -19.84559746427926 -17.44655688152798 0 37 -9
1692 604 4 0.4238 -7.679727040458151 -19.70164002213634 -19.05147143535459 0 74 -3
3831 1317 4 0.4238 -6.4704389076345015 -13.777409332901682 -19.63029571544679 0 0 -39
4805 1642 4 0.4238 -6.456112200552835 -14.053715910815445 -16.37970362071726 0 1 0
4997 1706 4 0.4238 -6.114563768639306 -18.03947116967087 -17.857249137767152 1 60 -90
4998 1706 4 0.4238 -6.345178328801455 -16.434710319823406 -17.661834243443593 1 4 -59
4804 1642 3 -0.8476 -6.250306383405953 -15.028357559997767 -16.467553647858164 0 34 0
3683 1268 4 0.4238 -1.237849338505845 -14.725713734769263 -17.639387279675173 0 118 -44
4996 1706 3 -0.8476 -6.053244949148858 -17.145704602458334 -18.301571287821904 1 11 13
1313 478 4 0.4238 -4.493539220295973 -15.250428469123134 -15.930069268272282 -5 22 5
1314 478 4 0.4238 -3.4658414128442465 -16.517664843681946 -15.862417949529288 126 54 -2
1312 478 3 -0.8476 -4.035159098507593 -15.898360367805289 -15.321733239134804 39 16 0
3150 1090 4 0.4238 -2.9561262549751555 -18.269509706028426 -17.136503070005617 12 -47 9
3682 1268 3 -0.8476 -1.1951887057478336 -14.887276949842942 -16.6534474055101 0 -42 -63
3148 1090 3 -0.8476 -2.2989728904747726 -17.829954511674657 -16.52417872562477 15 14 -10
3684 1268 4 0.4238 -1.5154532117613917 -15.813210579749159 -16.453253559641773 0 4 165
3149 1090 4 0.4238 -1.913472968185085 -18.512677830148924 -15.903470214596018 -4 -28 28
2515 879 3 -0.8476 -1.2900463914590439 -14.711122691705818 -19.35736640914903 0 -21 22
3790 1304 3 -0.8476 -2.1607910493556814 -14.484930672384348 -14.080457787741768 0 -5 46
3791 1304 4 0.4238 -2.904709324249795 -15.097568795286984 -14.347403786314485 0 24 -25
3792 1304 4 0.4238 -1.463968582087716 -14.474517672881813 -14.797625855415031 0 42 -102
2516 879 4 0.4238 -2.107104146398611 -15.164755550343223 -19.713222969360807 0 -41 145
5615 1912 4 0.4238 -4.370560095692624 -16.166538271408267 -18.780678625509182 0 83 18
5614 1912 3 -0.8476 -3.7116841952533153 -16.052454971698765 -19.524229698744875 0 -7 42
5064 1728 4 0.4238 -4.786123152336069 -16.637353163713325 -13.751182130217808 0 53 0
1730 617 4 0.4238 -0.8358870902233012 -16.582540103001822 -19.720325985553366 0 -32 -175
2517 879 4 0.4238 -1.3025851135403363 -13.746680365195651 -19.621362229799928 0 -2 -47
1919 680 4 0.4238 -17.77252512457902 -12.667727583679296 -19.020734763825633 0 -30 -15
2504 875 4 0.4238 -14.493496042658375 -13.086638909103849 -16.680094867821413 32 0 0
5275 1799 3 -0.8476 -18.288842772476883 -9.560258713941673 -15.189758367044687 9 -5 8
910 344 3 -0.8476 -18.792156680927597 -10.073594807102161 -18.707502742883502 49 0 0
2564 895 4 0.4238 -15.307964291937658 -11.370172429680068 -18.20321495461136 -41 0 -62
2563 895 3 -0.8476 -14.42556502086853 -11.816470120676481 -18.054251334470106 35 0 -67
2630 917 4 0.4238 -14.43553287560363 -8.558465183812038 -15.33119145707804 1 6 17
912 344 4 0.4238 -18.789627198494895 -9.234616585811736 -19.251661971403518 47 0 0
6010 2044 3 -0.8476 -16.4211832194712 -9.486134735000812 -17.532146006578014 6 -7 29
6012 2044 4 0.4238 -17.35298376428223 -9.66430295715257 -17.848379874908588 -20 29 -138
5277 1799 4 0.4238 -17.73160052407351 -9.423791419558874 -16.008817441833926 -21 16 119
6011 2044 4 0.4238 -15.818938252051723 -9.364609685267999 -18.321153404383374 -8 22 55
5276 1799 4 0.4238 -17.943117820893576 -8.981499977625296 -14.45117010832165 66 28 31
2565 895 4 0.4238 -14.10039081354713 -12.207742232807247 -18.915162840409604 -133 0 15
2629 917 3 -0.8476 -14.652275709802623 -8.200261764972154 -14.423053921065812 1 0 -28
3396 1172 4 0.4238 -19.07300137175117 -11.069954916066077 -14.602016575949959 74 -8 67
3395 1172 4 0.4238 -18.718975469358664 -12.30504116940846 -13.594120695088813 67 45 30
2631 917 4 0.4238 -14.34030514742642 -8.846552995642067 -13.726646757572091 1 0 -49
3394 1172 3 -0.8476 -19.257948884100113 -12.029589979225765 -14.390132211381184 17 13 13
1139 420 4 0.4238 -13.596686252742833 -10.22223263330539 -17.04421784016903 0 0 -2
911 344 4 0.4238 -19.732352052202195 -10.395164347272438 -18.595136755824406 -26 0 0
1485 535 4 0.4238 -16.33574557161801 -7.774422944805367 -13.706013777748513 -18 -32 114
3745 1289 3 -0.8476 -13.354807160244063 -7.006230119911821 -18.048081867111236 0 -1 17
4019 1380 4 0.4238 -10.180291150613549 -13.230002419939135 -19.282157454099426 0 -4 20
3747 1289 4 0.4238 -13.230268236133378 -7.842284326137952 -17.513755859888033 0 -1 5
5379 1833 4 0.4238 -7.975247416942906 -12.784069488589926 -18.035884645474628 0 -141 -50
1138 420 3 -0.8476 -13.11361592346869 -9.394372683233065 -16.759102109855583 0 0 -3
3606 1242 4 0.4238 -12.988626278787274 -9.68753917906069 -19.157036162831783 17 0 72
5066 1729 4 0.4238 -7.821617745045992 -11.986207058650587 -15.955012806375 0 29 -5
4664 1595 4 0.4238 -11.335702457905725 -11.173614765681021 -15.142079924331775 0 -94 0
4665 1595 4 0.4238 -9.731910484812776 -10.972883645165508 -15.374856282483634 0 29 0
1140 420 4 0.4238 -12.134309862460759 -9.585808947469248 -16.6934377359615 0 0 19
4663 1595 3 -0.8476 -10.64243981743492 -10.690972051492702 -15.677283582344414 0 -85 0
5067 1729 4 0.4238 -7.614337551971513 -11.514294978157958 -14.405509528070217 0 -29 -22
5065 1729 3 -0.8476 -8.281867288785792 -11.632780836154328 -15.140604877475875 0 1 -5
2832 984 4 0.4238 -9.016691107760144 -8.134701433761705 -14.921048246561387 0 14 73
5377 1833 3 -0.8476 -8.695458530982318 -12.797091807320028 -18.729517661696583 0 -9 -38
2830 984 3 -0.8476 -9.689691316832716 -8.012286962139079 -15.650490112754788 0 26 22
2831 984 4 0.4238 -10.145109545898647 -8.883557759135538 -15.833469492131192 0 -56 44
5322 1814 4 0.4238 -8.878883386902839 -6.836497739868075 -16.873416368051668 1 0 -93
5515 1879 3 -0.8476 -11.58744984268629 -12.419987773909815 -13.59550594460264 -55 -66 -31
5378 1833 4 0.4238 -8.720480143525338 -11.915369479779852 -19.200622818812917 0 -97 -86
5516 1879 4 0.4238 -12.38824743556356 -12.9451240902148 -13.307484939990006 -24 15 -95
3798 1306 4 0.4238 -12.573798248519966 -7.039982634129212 -14.975016817923587 0 0 0
3796 1306 3 -0.8476 -11.805508495044169 -6.900263796336478 -14.350349173005581 0 0 -3
3797 1306 4 0.4238 -10.94661298811508 -7.055433504163056 -14.838428921711143 0 0 21
620 247 4 0.4238 -9.418664345371925 -9.20974539184111 -19.291015930676775 4 0 -21
3604 1242 3 -0.8476 -12.462661905104564 -10.180209033278205 -19.850316818550894 0 0 -10
621 247 4 0.4238 -10.480862881278732 -10.40015764511216 -19.639268096577872 5 0 -100
5411 1844 4 0.4238 -12.343595121085432 -10.883183608334061 -13.310582965054897 2 0 4
326 149 4 0.4238 -5.937082179324131 -12.740806203709777 -17.783605546318498 0 -12 49
325 149 3 -0.8476 -6.380960602002879 -12.310427988235263 -16.99763699101061 0 33 -27
5828 1983 4 0.4238 -2.6952768307770585 -10.855929352421237 -14.10947551829578 0 -43 4
5829 1983 4 0.4238 -3.467790167150874 -12.234756201659277 -13.698761308970882 0 -6 -15
5535 1885 4 0.4238 -0.6336910754297709 -11.0707545917211 -15.08270253387891 0 0 54
327 149 4 0.4238 -5.976449722560758 -11.40989658791982 -16.838218698265035 0 32 3
816 312 4 0.4238 -4.282209182468956 -10.284415643315693 -15.471305128901987 0 -40 -42
814 312 3 -0.8476 -4.9100572799909 -10.037911109547633 -16.209575432921515 0 -25 -85
815 312 4 0.4238 -5.280839805118706 -9.124656192378277 -16.040797647167608 0 -6 71
5827 1983 3 -0.8476 -3.519935239085689 -11.403325878697713 -14.251938069457541 0 0 -25
731 284 4 0.4238 -1.7316448191416214 -7.313477322822449 -16.74922873086359 0 0 0
730 284 3 -0.8476 -1.7401879819453168 -7.250392513177082 -17.747200831116793 0 0 0
1621 581 3 -0.8476 -4.812493967062556 -7.975220059807916 -14.287022737623987 0 -13 1
2149 757 3 -0.8476 -2.377135611389787 -7.957946363244577 -15.229217287645756 0 0 64
2151 757 4 0.4238 -1.9750472626326463 -8.863159627694161 -15.091689410430458 0 0 30
732 284 4 0.4238 -2.685784424478823 -7.237808967567146 -18.07230061435684 0 0 0
2150 757 4 0.4238 -3.3604545694289927 -7.999614092996021 -15.052164536892922 0 0 -98
5533 1885 3 -0.8476 -0.9041281261793641 -10.516466751493292 -14.295537474216944 0 0 -18
5861 1994 4 0.4238 -2.07055167196732 -11.43893926992493 -19.045143592533606 0 1 59
5860 1994 3 -0.8476 -1.520676605253008 -10.700400258840743 -18.655018524949007 0 1 31
5862 1994 4 0.4238 -2.101923756939471 -9.903639519394481 -18.48971855640973 0 1 -22
1622 581 4 0.4238 -5.4161747155086735 -7.198276585829003 -14.10833672103421 0 -30 1
1623 581 4 0.4238 -4.893233773548289 -8.63814307182622 -13.542700620891571 0 0 1
3046 1056 3 -0.8476 -3.942464787611809 -6.783592560335986 -19.227295719951144 0 0 0
1977 699 4 0.4238 -0.22399007170473792 -7.790853927747441 -19.178107968172473 0 0 57
320 147 4 0.4238 -0.7060218311351522 -11.595007457418925 -17.37141689398399 0 0 -32
5534 1885 4 0.4238 -0.15664110131646689 -9.899276915336987 -14.049895734281382 0 0 -75
1419 513 4 0.4238 -4.135101412444311 -12.72796741098492 -19.403587396436187 -176 -6 32
1417 513 3 -0.8476 -3.240637409242738 -12.426279845285121 -19.733615868976486 -99 7 -23
3829 1317 3 -0.8476 -5.852403739768226 -12.99332882309445 -19.573284339830217 0 0 17
2775 965 4 0.4238 -5.017084719390157 -8.146613772629962 -19.63308338465647 0 -52 -94
319 147 3 -0.8476 -0.20596695781766536 -11.84578085475527 -16.542526896878986 0 0 10
3979 1367 3 -0.8476 -19.03544585396908 -6.623550901568915 -18.646828770075285 18 0 -29
3746 1289 4 0.4238 -14.250543780234759 -6.610941843954399 -17.84460391448902 0 -1 -60
4119 1413 4 0.4238 -19.60314120247171 -0.4165313758994592 -15.249445467919207 -136 0 -18
3981 1367 4 0.4238 -18.37443855096206 -6.488868896302232 -17.908634952851074 70 0 45
3083 1068 4 0.4238 -19.72201245702596 -4.461459386962836 -15.285900983542763 -94 0 -31
1400 507 4 0.4238 -15.21856789907742 -6.365447381643168 -14.183689341511515 0 0 0
3807 1309 4 0.4238 -15.569398025592491 -5.037634604062961 -15.854808107160494 14 0 -4
3806 1309 4 0.4238 -14.61714483335018 -4.555614247321599 -17.09072749579876 32 0 14
1350 490 4 0.4238 -18.56815450831917 -2.4872619612167735 -18.5950080558041 8 0 60
3805 1309 3 -0.8476 -15.452299282164077 -5.04910537697306 -16.84786215685506 -2 0 2
2677 933 3 -0.8476 -16.63163059575314 -1.3145746434342978 -16.04315649489174 0 0 0
2678 933 4 0.4238 -16.092743026922786 -1.3133103746005999 -15.200779707510678 -15 0 0
2679 933 4 0.4238 -17.21642674600108 -2.125499456551782 -16.063513911014734 -19 0 0
2899 1007 3 -0.8476 -15.538742867723307 -1.3114957172179273 -13.696039648646474 -36 0 0
118 80 3 -0.8476 -17.596676375892716 -3.8535289734105143 -17.87114153843353 38 0 -27
2900 1007 4 0.4238 -14.872310158265927 -0.5987305225302474 -13.914747774549452 30 0 2
120 80 4 0.4238 -16.77196348730382 -4.1767415091995534 -17.407048484897494 44 0 -87
119 80 4 0.4238 -17.464673472784277 -3.9067183444687696 -18.86096281127008 2 0 -24
468 196 4 0.4238 -18.51455966011516 -2.4500006860849783 -14.086664545413432 0 0 0
466 196 3 -0.8476 -18.4733971327244 -1.7813050897911922 -13.344268108613509 0 0 0
1399 507 3 -0.8476 -15.537593949186578 -5.419950242013349 -14.118435352628545 0 0 0
3084 1068 4 0.4238 -18.636571685621547 -3.921502134432774 -16.379926123590963 -19 0 -13
3082 1068 3 -0.8476 -19.12437388976228 -3.6995844508224143 -15.535650361557856 -21 0 -13
1348 490 3 -0.8476 -19.409564100458887 -1.975174133623245 -18.76762377515328 -33 0 53
1349 490 4 0.4238 -19.183435421047527 -1.0248860505992603 -18.98167728737569 102 0 30
2478 866 4 0.4238 -15.537754095559315 -0.43465461397749566 -18.83365327325873 1 0 -25
736 286 3 -0.8476 -13.444269081207864 -2.7710573916271204 -15.876506479740506 6 0 32
4670 1597 4 0.4238 -13.839387158424438 -0.3086321275969159 -17.505618093141518 -76 -13 -113
1401 507 4 0.4238 -15.207159823263511 -5.014760504132312 -13.266006360191115 0 0 0
1948 690 3 -0.8476 -15.52631707953223 -2.3341780376878254 -19.843265549092006 -20 0 39
2477 866 4 0.4238 -16.02897938146715 -0.2978186346233711 -17.28233121226915 1 0 -12
737 286 4 0.4238 -13.265843059654397 -2.8597823353333287 -14.896561561609317 18 0 -18
4671 1597 4 0.4238 -13.269749138124418 -1.2335007900360593 -16.28629164190059 -13 2 100
4669 1597 3 -0.8476 -13.156372921221589 -0.37003882619190404 -16.777798880095933 82 18 37
5320 1814 3 -0.8476 -8.10547521517492 -6.485172254903781 -17.401062756314925 1 0 -19
3198 1106 4 0.4238 -10.046340815534904 -0.38598648170999006 -19.108874511854314 0 19 -45
5321 1814 4 0.4238 -8.331751895413767 -6.501041746601032 -18.374996591438745 1 0 -87
738 286 4 0.4238 -12.981442019239763 -3.508958951497359 -16.367721746123316 7 0 50
1104 408 4 0.4238 -12.74568078961796 -3.721546467549821 -18.227200146825083 6 -94 79
1102 408 3 -0.8476 -12.668275508356263 -4.449473557170209 -17.545928836896394 39 13 -94
1103 408 4 0.4238 -12.42014813567352 -5.305465501953004 -17.999482145404226 -4 -142 116
3201 1107 4 0.4238 -8.407156805181682 -1.7170709403151927 -18.164163161251135 0 0 -37
3199 1107 3 -0.8476 -7.788536846874902 -2.494227715697204 -18.27965087098825 0 0 0
4316 1479 4 0.4238 -8.165976589837916 -3.844883232531388 -19.321735596945906 0 0 -76
3200 1107 4 0.4238 -7.332447571322645 -2.689103643730074 -17.411315538066564 0 0 -65
3196 1106 3 -0.8476 -9.425949884759008 -0.15333322683770628 -18.35988332519511 0 -16 29
2785 969 3 -0.8476 -12.818845843385803 -2.8700665231244646 -19.82174730868374 -18 0 10
4562 1561 4 0.4238 -7.793615973856482 -2.1832339831026797 -13.352467104911893 0 -53 25
4265 1462 4 0.4238 -6.53872062433671 -0.9011543690821933 -19.553593179765922 0 10 -44
3048 1056 4 0.4238 -4.366487195532792 -6.298803526722486 -18.46232211414341 0 0 -17
4092 1404 4 0.4238 -2.1935287390356355 -6.297226484290222 -14.147753081451604 -2 0 47
2528 883 4 0.4238 -5.134420012991855 -3.004046578456994 -15.322225551317134 0 0 0
4358 1493 4 0.4238 -6.430682437413741 -5.813730311048749 -17.48862661440632 0 -45 -116
1999 707 3 -0.8476 -3.198245461617938 -0.8300784828548735 -14.172241834119305 0 -4 21
4357 1493 3 -0.8476 -5.542028194496592 -5.360859083449989 -17.560746748167414 0 -5 -39
2527 883 3 -0.8476 -5.57897181169174 -2.875478688401874 -16.208704510937093 0 0 0
4359 1493 4 0.4238 -5.504839924531569 -4.595507740363277 -16.918209302865368 0 18 106
2529 883 4 0.4238 -5.369167284592805 -1.9620403051206419 -16.557435407258367 0 0 0
917 346 4 0.4238 -1.6734525805732927 -4.3865366111098165 -15.298341516220141 0 0 -72
5653 1925 3 -0.8476 -1.2260894249314462 -1.2813159068181355 -16.594949250956937 -9 19 -38
5969 2030 4 0.4238 -2.4701508643635472 -3.922457992633032 -17.540845458821472 0 0 25
5968 2030 3 -0.8476 -2.1672139559585495 -4.330972613311738 -18.40185996374456 0 0 39
5655 1925 4 0.4238 -1.3005322075107162 -2.260973285610765 -16.408587424533426 -32 9 -27
5970 2030 4 0.4238 -1.832891647328771 -5.257916494738509 -18.23155382883923 0 0 -21
916 346 3 -0.8476 -2.23165928412156 -3.6642258164308967 -15.706598070343949 0 0 31
918 346 4 0.4238 -3.0985465041337084 -3.5937775027059975 -15.21309582554614 0 0 -25
4594 1572 3 -0.8476 -4.091562329144248 -0.48608626594223986 -16.91811721219209 0 1 31
4595 1572 4 0.4238 -3.332640846054548 -0.7902261256518722 -17.493909905824886 0 1 -73
2001 707 4 0.4238 -3.4811470778656637 -1.694586346112427 -13.756797620045699 0 7 86
2000 707 4 0.4238 -3.5249557860925256 -0.7914193875443672 -15.116576014255891 0 38 103
5654 1925 4 0.4238 -0.8835179919739696 -0.8122606774607173 -15.780926935296623 32 32 14
5038 1720 3 -0.8476 -4.515512037885454 -3.25986359869531 -13.608743578576311 0 0 -1
2739 953 4 0.4238 -0.7137556462936379 -0.7817668411617436 -18.05735276870766 0 0 34
4090 1404 3 -0.8476 -1.7404480390605195 -5.532626339172568 -13.689380522496965 -19 0 30
3721 1281 3 -0.8476 -4.324126667608534 -2.9536581009031537 -19.220297732023976 0 0 -20
3723 1281 4 0.4238 -3.6327203858554387 -3.650198957785859 -19.028492039240053 0 0 -10
3722 1281 4 0.4238 -5.175092423104192 -3.190773175462242 -18.751646478034232 0 0 97
2375 832 4 0.4238 -0.15756299971672602 -3.8010655765830825 -19.5636952828783 1 0 81
2738 953 4 0.4238 -0.5794071378860831 -0.6647409231228841 -19.680585473378283 0 0 -21
2737 953 3 -0.8476 -0.19658666857360593 -0.3670386392822629 -18.80604431114496 0 0 -21
4091 1404 4 0.4238 -0.8297273938480901 -5.8163184115160185 -13.389201720654901 77 0 72
368 163 4 0.4238 -3.2723914612205065 -1.3456475300172888 -19.839642063390873 0 0 6
5040 1720 4 0.4238 -5.44735191862289 -2.9913554811376386 -13.364657704014801 0 0 -1
1362 494 4 0.4238 -15.076228390991528 -19.670088805375705 -13.041646757362463 0 -32 0
4773 1631 4 0.4238 -15.981546610025964 -19.648454595434096 -10.825038640410455 13 -48 0
2608 910 3 -0.8476 -19.791837605782277 -17.233532609715688 -11.17553353766782 -16 -46 -23
3130 1084 3 -0.8476 -17.76539955241789 -18.645616112625447 -12.576745085195338 41 -84 3
3132 1084 4 0.4238 -17.278558551843577 -19.51011841267123 -12.451758556439486 -22 46 -31
3560 1227 4 0.4238 -16.809513483712692 -16.80660299254497 -12.48681642260927 0 37 0
1425 515 4 0.4238 -13.770009598663853 -15.101324744564323 -12.524126664960448 -17 3 -54
1438 520 3 -0.8476 -18.590988279656997 -19.846222716864574 -9.070671942600153 25 -38 0
3561 1227 4 0.4238 -15.327125084948763 -16.13402130362355 -12.616373422174027 0 -22 0
3559 1227 3 -0.8476 -16.301763585066933 -15.94515111074053 -12.4963405541006 0 23 0
4772 1631 4 0.4238 -16.25973547764986 -18.29978259598082 -9.947359141342961 -1 -28 0
638 253 4 0.4238 -18.867051593298328 -15.096889204307669 -8.546923244519073 84 28 0
5983 2035 3 -0.8476 -17.161484066260517 -15.143205494576664 -7.482040272871267 0 0 1
5984 2035 4 0.4238 -16.484912256238747 -14.409724066904644 -7.416794257709095 0 0 1
193 105 3 -0.8476 -16.886846272109572 -16.681008282425573 -9.861074793431897 13 6 0
195 105 4 0.4238 -16.97858475706269 -16.15536776043855 -9.015328310655457 60 -24 0
194 105 4 0.4238 -16.79319521647808 -16.054192580969804 -10.634594036920152 -94 52 0
1439 520 4 0.4238 -18.843238123897603 -18.90333655864632 -9.288239702839766 9 49 0
2610 910 4 0.4238 -18.92379875616877 -17.60932477668619 -11.5000159475135 -23 4 -34
4771 1631 3 -0.8476 -16.04330252821095 -19.274905658476943 -9.899486148684032 0 -16 0
637 253 3 -0.8476 -19.665230623961612 -15.001724689050386 -9.141780461488079 21 -16 0
1423 515 3 -0.8476 -13.65997804192987 -16.07547828609555 -12.721403019141192 19 -16 27
2471 864 4 0.4238 -14.413242593639971 -19.503966023304887 -9.372964389737456 0 -11 1
2191 771 3 -0.8476 -15.062111754027837 -13.38365311798666 -7.605278611461952 0 40 0
2470 864 3 -0.8476 -13.424601928645423 -19.434234317795532 -9.23981730190112 0 -25 1
639 253 4 0.4238 -19.552858072783437 -15.585054337533355 -9.946205634149724 -43 -24 0
2472 864 4 0.4238 -13.19941840998508 -19.65769030888905 -8.29147142315159 0 -9 1
299 140 4 0.4238 -12.684036530093183 -18.23436883492971 -10.722047063417811 -10 -25 3
4165 1429 3 -0.8476 -11.238566520773354 -19.31600952426117 -12.950695509731995 0 -29 -14
300 140 4 0.4238 -12.775721624354661 -17.030032874946777 -11.82104445233995 1 -69 19
4166 1429 4 0.4238 -11.460519146213402 -18.634854116745558 -12.253009604882596 0 -109 39
298 140 3 -0.8476 -12.166387722447466 -17.526744131334315 -11.202990927379831 6 1 80
650 257 4 0.4238 -10.775563928947168 -17.70069624540389 -10.28535944628344 35 0 -2
249 123 4 0.4238 -7.991077021154667 -18.313291346041662 -11.880064167627292 15 0 -13
649 257 3 -0.8476 -10.09226349799245 -17.872099912074265 -9.575626159810078 7 0 18
651 257 4 0.4238 -9.630526342822872 -18.73972824913932 -9.760071010129177 -12 0 29
4277 1466 4 0.4238 -9.995996065136515 -17.967313295315392 -7.879884145867338 94 0 30
4276 1466 3 -0.8476 -9.937768894202046 -18.156020805731906 -6.899578522072978 30 0 -38
2544 888 4 0.4238 -8.581227392902242 -15.32974566199581 -9.025570582401537 -15 85 0
2543 888 4 0.4238 -9.012811730611167 -16.679022231212823 -9.837860063095093 16 -69 0
2542 888 3 -0.8476 -8.35633102617875 -15.925821872759634 -9.796359012795952 -1 0 0
1510 544 3 -0.8476 -8.746269479173295 -14.21321809332882 -7.637867821186344 0 0 0
247 123 3 -0.8476 -7.4366688574380495 -18.29732283812794 -12.71215594308804 3 0 3
1512 544 4 0.4238 -9.452720985016457 -14.460767959351593 -6.974809806173628 0 0 0
489 203 4 0.4238 -11.345302759610387 -19.63140394265518 -7.128728174199944 1 -45 0
5702 1941 4 0.4238 -7.0305506504812465 -13.973307527572562 -10.937460087357714 0 29 0
1763 628 4 0.4238 -6.715661685606312 -15.698315408431771 -10.51887478311924 -1 -122 -12
5497 1873 3 -0.8476 -10.004552917603032 -13.428016901451675 -11.742035245416744 0 11 -16
5498 1873 4 0.4238 -10.534729181452283 -13.295391451792112 -10.90458456943824 0 -24 -6
4811 1644 4 0.4238 -7.1370272210393795 -18.56400480007678 -6.702492699881908 0 76 -25
5499 1873 4 0.4238 -9.02963298170442 -13.445089672811575 -11.520135040355909 8 62 4
5205 1775 4 0.4238 -7.157093741451905 -15.065054632148238 -6.625071327247091 0 -13 -24
1448 523 4 0.4238 -0.033045389018275015 -15.242468860328405 -9.945889899246575 0 19 81
248 123 4 0.4238 -6.482943390705508 -18.114084847384813 -12.47376141472348 -30 0 -2
1447 523 3 -0.8476 -0.28104850380985735 -15.804180120085938 -9.156601904334654 0 16 -43
3651 1257 4 0.4238 -4.2461212066010185 -18.748850014151767 -13.091182478917245 0 -5 33
3126 1082 4 0.4238 -1.1694156106685194 -18.477503874974445 -9.652580051518113 0 -79 36
1764 628 4 0.4238 -5.1007283722911065 -15.843654590494225 -10.325242620328511 -1 99 34
1762 628 3 -0.8476 -5.822653230735136 -15.445556130243947 -10.891230377054676 -1 9 -29
4131 1417 4 0.4238 -3.23180954317338 -18.912080898199246 -11.28861299964992 0 -12 5
4129 1417 3 -0.8476 -2.9586858413527763 -18.5536361803318 -10.395908769857057 0 -13 0
5062 1728 3 -0.8476 -4.878205689519947 -17.042135854282996 -12.841417435120878 0 67 0
5063 1728 4 0.4238 -5.221071590441874 -16.352936436943384 -12.20310154916941 0 14 0
4230 1450 4 0.4238 -5.546718486573203 -17.602698276135257 -8.11685531615354 0 -6 36
4228 1450 3 -0.8476 -4.914480602666171 -17.323757508093106 -8.839674332362046 0 24 -7
4229 1450 4 0.4238 -4.077767325187872 -16.961358199587576 -8.429092233219398 0 -85 -20
4130 1417 4 0.4238 -3.6937123526062834 -17.985550666245974 -10.025753536788299 0 -3 -6
4999 1707 3 -0.8476 -2.8949484792181064 -14.3927081481143 -9.831876261543862 0 -17 6
4526 1549 4 0.4238 -1.9208346853877398 -16.183259102205916 -8.339631829408136 1 -136 0
4525 1549 3 -0.8476 -2.548805991030698 -16.469271224191257 -7.615857610614553 1 -7 0
5000 1707 4 0.4238 -2.914847240268016 -14.071107083622481 -10.778542877983913 0 -118 -12
5001 1707 4 0.4238 -1.9528876940899456 -14.604049038368032 -9.571383419272259 0 72 -114
3649 1257 3 -0.8476 -3.8639926553921926 -19.665325819916124 -12.972650272617523 0 -49 0
3124 1082 3 -0.8476 -0.2703452964710721 -18.82707362926063 -9.388999943059968 0 -14 1
5543 1888 4 0.4238 -2.7172478033885366 -13.703241100420945 -12.785263092066536 0 -22 0
4527 1549 4 0.4238 -2.0358433714227546 -16.933162766776316 -6.893587571083339 1 -40 0
3282 1134 4 0.4238 -2.9663438574503953 -19.59047818012507 -8.967553665723507 0 -93 -2
5907 2009 4 0.4238 -0.12384255982047952 -13.72504483251618 -12.153937420397643 0 59 0
4810 1644 3 -0.8476 -6.377250515580549 -17.91738647094342 -6.634489656722117 0 -7 -10
2192 771 4 0.4238 -14.806518336336692 -13.215340514941104 -8.557299041783066 0 37 0
1483 535 3 -0.8476 -17.156166630601895 -8.072012052054687 -13.217802737696575 11 -8 -12
2385 835 4 0.4238 -15.061987135129261 -12.819985233693275 -13.15718057456707 0 -17 -8
2383 835 3 -0.8476 -14.197160887820342 -12.93750165367134 -12.669055825642669 0 -18 16
2384 835 4 0.4238 -14.346089104053775 -12.801490405829654 -11.689606092655314 0 33 68
2193 771 4 0.4238 -15.144487492937873 -12.511469724451722 -7.123085221592906 0 3 0
3794 1305 4 0.4238 -19.414101130008852 -8.677535581368044 -12.299940755662574 2 -3 -32
2123 748 4 0.4238 -18.60333420971785 -12.094996712029666 -11.142257832463608 8 39 0
2124 748 4 0.4238 -17.088714986846377 -12.06788933866425 -11.75202853020249 27 -29 0
2122 748 3 -0.8476 -18.056499446624443 -12.18564057195503 -11.974577159421383 2 -21 0
5820 1980 4 0.4238 -18.01012073229327 -11.268094998502065 -9.018396685686112 13 24 0
5819 1980 4 0.4238 -17.074451849139557 -10.49344090310331 -7.927039138150983 -2 20 0
5818 1980 3 -0.8476 -17.184329623247496 -10.717704746653565 -8.89535347055064 0 -49 0
5481 1867 4 0.4238 -15.772021196936489 -11.51960013816066 -9.528753797549621 25 0 0
1484 535 4 0.4238 -16.922596576470358 -8.276473794791023 -12.267202691368155 6 -15 57