LAMMPS data file via write_data, version 23 Jun 2022, timestep = 7500000

6060 atoms
4 atom types
4000 bonds
1 bond types
2000 angles
1 angle types

-19.874796335011464 19.874796335011464 xlo xhi
-19.874796335011464 19.874796335011464 ylo yhi
-19.874796335011464 19.874796335011464 zlo zhi

Masses

1 22.99
2 35.423
3 15.999
4 1.008

Bond Coeffs # harmonic

1 517.63 1

Angle Coeffs # harmonic

1 37.9505 109.47

Atoms # full

4366 1496 3 -0.8476 -18.704893132488163 -18.38995313773875 -18.862308391224527 -131 9 4
3794 1305 4 0.4238 -16.526626086854527 -16.224157895553315 -15.45626142696732 -44 -10 -59
3793 1305 3 -0.8476 -15.578386769122346 -16.0116437586694 -15.692228054572183 12 -56 -25
3795 1305 4 0.4238 -15.519831100171011 -15.068823634758271 -16.020348319105764 122 33 54
4367 1496 4 0.4238 -18.12135717971567 -18.45974525600983 -18.053225506063022 23 -2 -76
5636 1919 4 0.4238 -17.832857808338673 -14.890320686767948 -18.273080517733238 -33 0 -103
4287 1469 4 0.4238 -15.603046631062382 -19.11662083203566 -16.86430125892914 -54 -25 81
4950 1690 4 0.4238 -14.737304960179682 -17.327602844388373 -16.041163413152614 0 43 40
4948 1690 3 -0.8476 -14.233266427222022 -18.188357330054718 -16.112205242777826 0 -4 7
2920 1014 3 -0.8476 -14.888598329483228 -15.200375603874782 -19.63044835505691 0 -12 -26
4285 1469 3 -0.8476 -16.25038030442656 -19.55117981008229 -17.490494228935276 -52 -13 14
4368 1496 4 0.4238 -19.663841245958608 -18.466496281751862 -18.58925191759408 -81 17 92
3456 1192 4 0.4238 -18.093026051047936 -16.837116008248227 -19.675429332051127 -132 -25 1
3454 1192 3 -0.8476 -17.70558630418559 -15.915738570537663 -19.70633328058843 176 -41 -63
3612 1244 4 0.4238 -18.53871507121892 -14.861286740103216 -14.743447632594975 127 1 29
2921 1014 4 0.4238 -15.501425130111873 -15.985721977697546 -19.718051984691396 0 42 65
2922 1014 4 0.4238 -13.946974799013391 -15.521878341732574 -19.530542645893238 0 50 17
3157 1093 3 -0.8476 -10.941554221319938 -15.90430219891345 -15.466560741068943 0 0 -29
257 126 4 0.4238 -10.88315602834417 -17.066525312766608 -17.007539292619967 0 -77 -13
256 126 3 -0.8476 -11.103796715709908 -17.694169472096775 -17.754119065030526 0 16 -12
258 126 4 0.4238 -10.264677293923313 -17.947865283136284 -18.235281631304566 0 -8 -1
3158 1093 4 0.4238 -10.056407697288329 -15.486543957175419 -15.261636899391291 0 0 86
4949 1690 4 0.4238 -13.545546324188305 -18.232683794319207 -15.38758378191294 0 -10 -2
3159 1093 4 0.4238 -11.21322546049809 -16.4980691779728 -14.709173001155332 0 0 144
1253 458 4 0.4238 -12.067026868677265 -16.774035550869865 -18.97019709976604 25 -13 74
89 70 4 0.4238 -11.847673955009682 -19.065777807167592 -16.957863593354713 -38 -4 -18
5542 1888 3 -0.8476 -9.577026639761185 -18.596230038275444 -14.541326940982158 0 -95 0
1252 458 3 -0.8476 -12.50922368692913 -16.164719516613946 -19.628373345173944 32 19 36
3792 1304 4 0.4238 -12.12378313565168 -14.8751779371612 -16.479810202864662 0 24 -77
3791 1304 4 0.4238 -12.8435976910191 -15.13796578063777 -17.92183518729709 0 24 -35
3790 1304 3 -0.8476 -12.479689303785715 -14.438936663880853 -17.306263099571805 0 -5 78
5543 1888 4 0.4238 -9.74204986233492 -19.55175898216452 -14.296923547950612 0 -48 0
1108 410 3 -0.8476 -9.010494811234496 -17.545636316086515 -19.748646459370118 -17 26 13
1674 598 4 0.4238 -11.383044180305994 -18.47626831155731 -14.481404140959997 19 18 0
5544 1888 4 0.4238 -8.810388997523045 -18.543480271347992 -15.181236502371883 0 81 0
1160 427 4 0.4238 -8.624678370851992 -16.370126054849298 -18.280347057377128 1 4 -24
4521 1547 4 0.4238 -6.820789976304184 -19.05737595832925 -17.68227795241066 0 -45 0
4519 1547 3 -0.8476 -6.900578484367934 -18.428867420527652 -16.908577996597405 0 -15 0
1161 427 4 0.4238 -7.739887670923886 -16.82872450595314 -16.986724479269206 1 -67 63
1159 427 3 -0.8476 -8.1043332352591 -16.045525562358904 -17.490489172108912 1 -99 -33
5827 1983 3 -0.8476 -4.75975937315061 -16.94647613885474 -15.914549262563638 0 -3 -11
5829 1983 4 0.4238 -5.016796603851955 -16.239116593663578 -16.57301329275638 0 56 110
3817 1313 3 -0.8476 -5.756222128589637 -14.762708366974055 -17.095842308280297 -6 7 -26
3819 1313 4 0.4238 -6.644992379736777 -15.09621095130133 -17.410267977328047 9 80 -13
4002 1374 4 0.4238 -4.804504999261692 -18.150534341161276 -17.876712600947254 1 -54 -2
1092 404 4 0.4238 -3.6987131921106164 -14.749135772653505 -18.08216979100706 0 5 -238
4001 1374 4 0.4238 -3.7721278720770117 -18.808510472155 -18.957403034926312 1 28 13
4000 1374 3 -0.8476 -4.478408855797662 -19.006590875647134 -18.277747158818247 1 38 -1
5105 1742 4 0.4238 -3.4995369420068556 -17.961312076478972 -15.023645562246907 0 8 4
5828 1983 4 0.4238 -5.5724460331554 -17.46435244705771 -15.647444432027303 0 -78 -37
4520 1547 4 0.4238 -6.944046123794703 -18.9519015632268 -16.057374924529153 0 -5 0
2492 871 4 0.4238 -5.8170759802308725 -14.665435556048154 -19.013275043446978 0 18 -3
4573 1565 3 -0.8476 -6.089538646861267 -18.801072744279026 -14.249665799507573 0 0 0
1090 404 3 -0.8476 -2.746822510187589 -14.500042213509953 -18.260655071208628 0 7 -9
1091 404 4 0.4238 -2.153768635510757 -14.949636896358312 -17.592708495338616 0 50 -105
5106 1742 4 0.4238 -2.61296153104222 -19.27206948945791 -15.426791536924975 0 19 -108
5104 1742 3 -0.8476 -2.5962590998914425 -18.386108915908242 -14.963330744029358 0 0 1
3452 1191 4 0.4238 -1.6809615827666302 -17.164248787647814 -16.002526784613696 0 141 -15
3451 1191 3 -0.8476 -1.293060085517071 -16.558023537629584 -16.696805834163218 0 43 4
3453 1191 4 0.4238 -0.6009704052416937 -17.05286770352162 -17.22229717721588 0 -76 82
5095 1739 3 -0.8476 0.4727060825725541 -17.972295967056557 -18.37740776466226 6 11 -20
1731 617 4 0.4238 1.8444157447146532 -15.327973460987174 -18.456474097383058 0 9 12
650 257 4 0.4238 -1.3163146181538867 -15.23282610463282 -15.560968004858987 35 0 -8
1729 617 3 -0.8476 1.192205373307041 -15.356921847082909 -19.213959172927563 0 -20 65
5096 1739 4 0.4238 0.7496751726307779 -17.092796156992776 -18.764407342651285 5 -48 5
5097 1739 4 0.4238 1.2476420599059272 -18.604025787900603 -18.397200635977303 37 -83 -31
649 257 3 -0.8476 -1.5297137276855894 -14.48141656486554 -14.936592680239249 7 0 18
5451 1857 4 0.4238 -1.9820819213783842 -15.160905906035346 -19.617257279958988 0 90 70
3254 1125 4 0.4238 2.3463525258311395 -14.559019802662535 -16.387096968345624 0 44 30
1730 617 4 0.4238 1.0393665092291307 -14.430414013543839 -19.55779569982618 0 -32 -271
3638 1253 4 0.4238 2.7767719166598104 -18.093499870334153 -15.85688901840773 0 7 -37
5450 1857 4 0.4238 -0.47915020258554686 -15.74222406137202 19.867964530364976 0 388 -32
3255 1125 4 0.4238 3.110423796273199 -16.001149748180687 -16.331573903003846 0 -15 -2
3253 1125 3 -0.8476 2.9903649847445126 -15.160550508445205 -16.85975836359529 0 2 4
3637 1253 3 -0.8476 3.181507736195919 -17.480820471205504 -15.178056886736735 4 -14 19
535 219 3 -0.8476 5.86918001807999 -17.50111203900193 -15.63967255091729 0 -25 -92
636 252 4 0.4238 5.906598576997677 -14.72813573407161 -17.185540874610357 0 44 1
3639 1253 4 0.4238 4.151053985629622 -17.699486783289892 -15.067756950738604 -52 70 -73
784 302 3 -0.8476 7.414407292374015 -16.221249717845556 -17.75435992212455 -3 17 -12
536 219 4 0.4238 6.653733705400371 -17.22601605772172 -16.195368268373468 0 4 61
537 219 4 0.4238 5.9036007897037575 -17.030224001825516 -14.758151310253197 0 15 8
1319 480 4 0.4238 5.259687215613297 -18.46319649526661 -16.83505630619901 0 -7 -24
786 302 4 0.4238 7.099456028139495 -16.556580219729195 -18.642255880196338 -9 -4 -4
1320 480 4 0.4238 5.695457774761925 -18.64375758843276 -18.398427092835437 0 -4 44
785 302 4 0.4238 8.377429646484963 -15.959775079203574 -17.81931386993953 5 -27 7
1318 480 3 -0.8476 5.067955643121688 -18.954669201664668 -17.684581834309284 0 8 1
260 127 4 0.4238 8.544107142337229 -14.406371947370083 -14.563553432652196 -7 0 -3
1232 451 4 0.4238 3.567993422731554 -19.713652648083514 -17.684450324901807 0 -20 19
2540 887 4 0.4238 8.4095753193595 -19.795087939775357 -15.63668196165344 -72 62 -36
3958 1360 3 -0.8476 10.078412517326113 -14.460131999951894 -15.87047685056367 0 -2 0
4855 1659 3 -0.8476 10.067327001083882 -15.727992358050864 -18.536822814678843 -20 64 0
5902 2008 3 -0.8476 12.43433389018024 -18.438308760474023 -16.66287516908534 0 42 0
2098 740 3 -0.8476 12.580094964243733 -15.756819343127452 -17.104674953883958 16 0 -3
4857 1659 4 0.4238 10.8148974104458 -16.39062043378258 -18.491407808000663 -7 192 5
4620 1580 4 0.4238 13.287555510526333 -15.76736781633339 -14.98189671547497 0 0 -49
5311 1811 3 -0.8476 10.48765626240995 -18.53742216724206 -19.242154930107013 0 -21 68
5382 1834 4 0.4238 9.84394203094914 -18.466734074767768 -14.82741132431658 -60 -37 -12
2099 740 4 0.4238 12.301699558737539 -14.851657088871562 -17.425887206944086 -31 0 -119
5904 2008 4 0.4238 12.48062260495957 -17.452847811733918 -16.826353868633053 22 64 -11
4856 1659 4 0.4238 10.230454598757095 -15.092670067623688 -19.291643998168958 -22 13 3
2100 740 4 0.4238 13.504290692506645 -15.956365841945866 -17.430318143065314 -25 0 -83
5903 2008 4 0.4238 13.051342386061608 -18.681353942386814 -15.914389622925508 58 78 0
5313 1811 4 0.4238 11.396784664927084 -18.275662082409507 -19.566141422593876 0 3 79
5312 1811 4 0.4238 10.530839767353193 -18.75344150470681 -18.266721259201656 0 9 150
3960 1360 4 0.4238 10.008120088165722 -14.918930353771165 -16.756232852695366 0 26 0
3959 1360 4 0.4238 10.491360504841118 -15.081830762456589 -15.2049208712704 0 45 0
2539 887 3 -0.8476 9.171549455253912 -19.72135678926249 -16.28007886926595 -18 -3 9
3885 1335 4 0.4238 19.281686694707542 -15.612542665389983 -14.960754660838566 19 9 -46
5835 1985 4 0.4238 14.742072553679067 -15.574834320213014 -19.1708673667468 -23 -9 52
5833 1985 3 -0.8476 14.932433344573802 -15.298967951949576 -18.228709989931783 13 -22 -42
5834 1985 4 0.4238 15.71330515997899 -15.817804120470587 -17.880790076836117 -178 14 -29
2917 1013 3 -0.8476 17.214618068786606 -16.55281033085526 -17.59169603154502 8 2 38
2918 1013 4 0.4238 17.985760298477857 -16.499024233351914 -16.95730913254406 -93 -13 37
2919 1013 4 0.4238 17.290727353842534 -17.386306093159543 -18.13895485200918 -42 3 -126
3883 1335 3 -0.8476 18.601167908914576 -16.338024038105694 -15.063572589748064 11 -30 10
883 335 3 -0.8476 17.920957832014977 -18.671279885595574 -19.16354484627369 11 16 -35
885 335 4 0.4238 17.84548383864758 -19.56704954617092 -18.72547881299123 37 13 167
298 140 3 -0.8476 14.520324090624612 -18.927244030522402 -14.797374053382796 -19 8 110
4341 1487 4 0.4238 17.825105203696484 -14.806181091792336 -18.238775401539666 -2 0 0
300 140 4 0.4238 15.17462359095052 -19.428009749961504 -15.364053974302445 -39 -15 42
5876 1999 4 0.4238 16.83590903342413 -15.781641496556897 -14.523915738536898 84 69 -28
3884 1335 4 0.4238 18.789033314854315 -17.066976816840633 -14.405290362123974 -31 27 15
4339 1487 3 -0.8476 18.63906748180578 -14.291724375616335 -18.508590268411467 11 0 0
5635 1919 3 -0.8476 -18.17937196610686 -14.175700811043846 -17.665424002560847 0 0 -34
5637 1919 4 0.4238 -19.10634655400284 -13.923013138755554 -17.942673161344423 111 0 26
3611 1244 4 0.4238 -18.505400762836217 -13.89460811972792 -16.059141028664044 -66 0 -20
3610 1244 3 -0.8476 -18.859476535208675 -13.996362482878492 -15.129476341288585 12 0 7
2273 798 4 0.4238 -14.879629951845146 -13.940306334224632 -17.68247789075452 -94 -33 40
2274 798 4 0.4238 -16.46507210407473 -13.875133465537765 -17.29679300568059 -3 31 16
2272 798 3 -0.8476 -15.53593152545759 -13.72210730664674 -16.960219114935306 -8 53 8
2384 835 4 0.4238 -15.234876914938104 -12.307126842885273 -15.789750881515184 -6 58 85
5470 1864 3 -0.8476 -17.569007337875302 -9.67919172088096 -18.032725138164764 122 1 93
2927 1016 4 0.4238 -17.809165608813863 -10.900303573898395 -19.236145040012744 209 -26 47
2385 835 4 0.4238 -15.04999311458307 -10.731003238460332 -15.404680167484774 13 -68 5
2383 835 3 -0.8476 -14.934729319554755 -11.669786424960828 -15.080025713730398 1 -16 28
399 173 4 0.4238 -15.666547090595163 -10.765663056480829 -18.529528337185333 24 0 -68
5471 1864 4 0.4238 -18.445023820086412 -9.261749740582237 -18.27425907983627 79 1 -97
397 173 3 -0.8476 -14.784325442750607 -11.190428212146095 -18.732653328961216 -13 0 61
5472 1864 4 0.4238 -16.93587100498985 -8.9698061734852 -17.72302973810139 105 1 -9
1775 632 4 0.4238 -14.82471440949516 -8.624354095723287 -14.553773452725975 -5 0 1
2928 1016 4 0.4238 -18.853303910781896 -12.102575414556402 -19.598007070342295 35 -33 112
398 173 4 0.4238 -14.930734090406277 -12.025987278985857 -19.262186962899335 13 0 0
1774 632 3 -0.8476 -15.821191726184367 -8.542529462886206 -14.535396483241213 14 0 20
5681 1934 4 0.4238 -13.11367944981479 -9.353996780389688 -15.988522075044838 4 29 -64
326 149 4 0.4238 -9.863393597019638 -12.815006579145773 -15.518674588230484 0 -12 49
5680 1934 3 -0.8476 -13.308901102318094 -9.141300123444843 -15.031104253412895 1 14 18
3949 1357 3 -0.8476 -10.933843896340427 -12.027571927674003 -16.930747741313574 0 0 50
3950 1357 4 0.4238 -11.656144602965195 -11.360875002324871 -17.114587121185167 0 0 -61
3951 1357 4 0.4238 -11.272907189800891 -12.94821937206969 -17.12425325592376 0 0 -15
1378 500 3 -0.8476 -12.342207682550711 -10.170859936138587 -18.299295269339012 -28 -144 -28
1380 500 4 0.4238 -12.282395092266277 -9.185625333691691 -18.138873162015216 7 61 -122
5443 1855 3 -0.8476 -9.639536957919823 -8.624343305852705 -19.00559006962975 15 -42 -9
501 207 4 0.4238 -9.603524778800422 -11.330675175212196 -17.92249886210296 0 -77 -63
1379 500 4 0.4238 -13.238269601220306 -10.39210247546179 -18.68416513214657 -28 -145 57
499 207 3 -0.8476 -8.820721106349453 -11.213794192170019 -18.53369218071504 0 25 75
500 207 4 0.4238 -8.74195812283978 -10.251525354702347 -18.79414389715932 0 158 46
5001 1707 4 0.4238 -12.409572130173272 -13.72193287354233 -19.404078620253223 0 72 -117
325 149 3 -0.8476 -9.031403996184343 -13.198658425322947 -15.117918944253505 0 33 -27
5682 1934 4 0.4238 -12.639206214506567 -9.59745685458956 -14.445074968214868 18 56 -117
5000 1707 4 0.4238 -12.157712244979281 -12.117261940198432 -19.236077719129774 0 -117 20
186 102 4 0.4238 -10.284903074883353 -9.95750863264315 -14.414871109349667 -58 0 15
2375 832 4 0.4238 -8.562410570648137 -9.714299863414562 -16.921406219460714 1 0 97
4999 1707 3 -0.8476 -12.165584497181335 -12.879109713210282 19.865806550974934 0 -29 12
5516 1879 4 0.4238 -8.372649776500863 -12.532784626271846 -19.63090537745298 -24 15 -121
3818 1313 4 0.4238 -5.890270312712603 -14.10433722661343 -16.355181426491104 -7 -15 242
327 149 4 0.4238 -8.332353211957505 -13.292037962113163 -15.826867750992788 0 32 3
4243 1455 3 -0.8476 -5.630693568320842 -12.492502515146198 -15.607288714778498 0 -61 -13
4245 1455 4 0.4238 -5.832409492476369 -12.189921157358528 -16.538822567793776 0 -16 -55
4244 1455 4 0.4238 -4.6400286010503216 -12.531550728327742 -15.476681546083281 0 -32 -47
2374 832 3 -0.8476 -7.729076528902534 -9.317719946276116 -16.536336309287222 1 0 -71
1573 565 3 -0.8476 -6.051321374788968 -11.641265293016758 -18.11118082622537 0 -11 16
1574 565 4 0.4238 -5.4784148440574 -11.078593065015536 -18.707149030471566 0 -84 -45
1575 565 4 0.4238 -6.997367476578228 -11.612212062517646 -18.43390835595045 0 -14 -10
2376 832 4 0.4238 -7.3391479049918065 -9.948245261323736 -15.865222116711987 1 0 -160
5060 1727 4 0.4238 -3.172102801176188 -11.943817063746103 -14.683655295905739 0 -17 -93
5059 1727 3 -0.8476 -2.956690764548076 -12.319060784680193 -15.585203868404506 0 4 -36
5575 1899 3 -0.8476 -3.085407341291324 -11.747722965721248 -18.212090839375602 0 33 69
5576 1899 4 0.4238 -3.1354161157944556 -11.733738338985587 -17.2134399471522 0 7 13
4370 1497 4 0.4238 -6.583016243279863 -11.377715345960945 -14.547803363372118 -53 0 1
3048 1056 4 0.4238 -3.0836221529394443 -10.851914455458479 -19.50638762121393 0 0 97
5577 1899 4 0.4238 -2.953240685063299 -12.687908640520707 -18.526069995839865 0 28 -155
2151 757 4 0.4238 0.10360604749069569 -13.834445204505652 -14.854768111825187 0 0 20
5061 1727 4 0.4238 -2.4634857820039797 -13.182314067187997 -15.477767123667613 0 -75 -52
2149 757 3 -0.8476 1.0805060011521188 -13.788122317028716 -15.063384237032787 0 0 78
4453 1525 3 -0.8476 1.8771720559731557 -11.442004167306022 -16.279336144650376 0 -38 -5
4455 1525 4 0.4238 1.335672076809396 -12.234827822269075 -15.999676691041449 0 -45 -142
4454 1525 4 0.4238 1.3440753362990334 -10.607771172830383 -16.13839693544546 0 6 32
940 354 3 -0.8476 0.5399957051985893 -8.836009065715528 -16.5343478562644 6 -24 43
5410 1844 3 -0.8476 -0.06562744782936183 -9.112321387597389 -19.27873213895965 17 0 -33
942 354 4 0.4238 0.4508632808609566 -8.912716730421186 -17.527409471344377 4 -94 197
916 346 3 -0.8476 2.5828543820167127 -11.356481562104774 -18.930496646464125 0 0 60
918 346 4 0.4238 2.345308922664644 -11.624162467589276 -17.996730548139535 0 0 -21
5562 1894 4 0.4238 1.3870671562609556 -12.375108127109048 -19.48998742934231 0 0 19
2757 959 4 0.4238 2.1780456917397006 -8.558871653533945 -16.241433312485054 0 81 25
5412 1844 4 0.4238 -0.954783802018658 -9.345370241233981 -19.672545912467818 12 0 -53
917 346 4 0.4238 2.5869667185971563 -10.358939254107478 -19.000442771748478 0 0 -69
635 252 4 0.4238 4.375147626824271 -14.161449314242299 -17.197828585077062 0 30 -23
634 252 3 -0.8476 5.340246536774827 -13.907514386030023 -17.261869024914027 0 8 10
1772 631 4 0.4238 3.1311027876396946 -10.914733188919437 -14.909223371978255 53 37 21
4145 1422 4 0.4238 6.343035345224605 -12.644290283777947 -17.908535710662285 0 1 -149
2526 882 4 0.4238 5.497159574428954 -13.091460623072988 -15.639177286941633 0 0 110
2524 882 3 -0.8476 5.878870472921752 -12.781125897701925 -14.768550970796055 0 0 -9
347 156 4 0.4238 6.863950778690289 -11.480091342391388 -15.197452310254036 0 0 -47
346 156 3 -0.8476 7.387227625956744 -10.66350476090979 -15.441107255471152 0 0 -15
5042 1721 4 0.4238 6.327541133752446 -9.287839237407951 -18.370160990182 -154 110 -100
4144 1422 3 -0.8476 6.988169445282021 -12.208172981235492 -18.53591416402101 0 1 39
5041 1721 3 -0.8476 6.990242159887361 -9.550490819317575 -19.07147513944333 -62 67 9
5043 1721 4 0.4238 7.201892330791382 -10.523754712042138 -18.982247114661053 -227 10 75
4415 1512 4 0.4238 6.25245595697006 -9.396302577344853 -16.324363843878373 0 0 -3
4414 1512 3 -0.8476 5.537721990450514 -8.938283634362113 -16.85292228365762 12 0 1
4146 1422 4 0.4238 7.839009543636333 -12.73316562399443 -18.557218126358784 0 1 40
348 156 4 0.4238 8.290911218810493 -10.933567475063986 -15.773405493390195 0 0 -20
4348 1490 3 -0.8476 3.4838418224700853 -8.800214383509815 -18.996209375436752 -1 0 12
4350 1490 4 0.4238 4.197088765348621 -9.236081594220916 -19.545116387130456 -16 0 9
4416 1512 4 0.4238 4.6480151716083835 -9.111472709830585 -16.430515686041844 -85 0 -40
4349 1490 4 0.4238 3.8053112827765023 -8.694497871641092 -18.055208964772405 -22 0 -28
1911 677 4 0.4238 5.924203836452154 -12.331618722882697 -19.861751102132015 -3 29 132
1037 386 4 0.4238 10.697508632321345 -11.505091625861516 -15.018455058013418 0 0 -32
1036 386 3 -0.8476 9.939475304293104 -11.760596327340478 -15.618541356024435 0 0 4
1677 599 4 0.4238 11.998380176609816 -9.670092900384246 -15.828859696549227 -68 0 52
1038 386 4 0.4238 9.861200780315864 -12.757004907180882 -15.65085478767707 0 0 -27
2417 846 4 0.4238 13.435397165467936 -12.108157829363169 -18.22185707017302 28 -87 -1
523 215 3 -0.8476 12.658839548654086 -11.335162985405226 -14.898376676321055 -58 0 -6
1675 599 3 -0.8476 12.499879913351489 -8.914288082655618 -16.249878834154035 -9 0 19
524 215 4 0.4238 13.032913533827958 -12.229633839434134 -15.143306360207465 -9 0 -2
1676 599 4 0.4238 13.475035711225543 -9.134369693056103 -16.275083377477113 18 0 -77
1607 576 4 0.4238 9.607586434666308 -9.4871822944492 -14.799711000549294 -13 -66 1
4192 1438 3 -0.8476 12.574505957656346 -12.397928559193435 -19.82515017122405 0 -75 -3
2416 846 3 -0.8476 14.258047251387394 -12.459116327333126 -17.774558573218435 25 6 -7
4489 1537 3 -0.8476 19.49522334826903 -9.100345494986104 -18.55972847488545 2 0 -10
2418 846 4 0.4238 14.346591323443546 -13.437756576894813 -17.96009518764127 25 17 -37
4340 1487 4 0.4238 18.581360443603273 -13.361904218773962 -18.14512656783542 13 0 -1
5330 1817 4 0.4238 15.606846650199197 -11.603229964633782 -16.895159851231067 4 0 -71
3408 1176 4 0.4238 19.238042113042642 -10.763020080772229 -17.94733616221453 11 19 -102
5331 1817 4 0.4238 16.113906803819322 -10.051731069026378 -16.94381862241956 -47 0 -3
3407 1176 4 0.4238 17.821249173374298 -11.447286767022339 -17.510182447398993 -13 -10 0
3406 1176 3 -0.8476 18.724296468770365 -11.619844022483392 -17.903539297254042 0 9 6
5329 1817 3 -0.8476 16.3735898485713 -10.988630980665832 -16.709760303598166 38 0 -1
2717 946 4 0.4238 17.605916853392344 -10.560474027526688 -15.422948055498553 0 0 -170
2716 946 3 -0.8476 18.061116674491892 -10.259763766862656 -14.584874451689895 0 0 14
4490 1537 4 0.4238 18.933045394006797 -9.349365496186675 -19.348363975041266 -3 0 -77
2952 1024 4 0.4238 15.353461696114863 -8.77296500737 -18.598831090217594 78 1 -3
4293 1471 4 0.4238 -15.830766380273133 -8.17517883592034 -16.232508628296717 0 0 -9
4291 1471 3 -0.8476 -15.647511847985879 -7.736007604907109 -17.112023520606158 0 0 45
4495 1539 3 -0.8476 -18.579356499127424 -4.067937763940481 -15.489779048479855 -48 0 -13
4497 1539 4 0.4238 -18.527115846475574 -5.004871650484255 -15.144198035629215 102 0 57
4280 1467 4 0.4238 -18.03675420882075 -5.772317535571151 -18.230131562732556 0 1 67
4279 1467 3 -0.8476 -17.512688081558572 -6.26839369887667 -18.92241997483781 0 1 -40
4281 1467 4 0.4238 -18.12246484998277 -6.878552598462022 -19.42826557399585 0 1 80
4292 1471 4 0.4238 -16.11046907787258 -6.85024689671729 -17.145168617165652 0 0 39
1395 505 4 0.4238 -15.646544676211503 -4.752058324750992 -15.225648410623569 42 -30 2
1394 505 4 0.4238 -17.00980080059132 -4.108516591359304 -15.853353195538318 -55 9 85
4496 1539 4 0.4238 -19.484474644985085 -3.6904823944207354 -15.294103557811283 59 0 -42
1393 505 3 -0.8476 -16.05008661692197 -4.323635636194667 -16.034108626485125 -10 -15 7
3350 1157 4 0.4238 -15.902198454942313 -5.635196988525763 -19.460170262212145 0 0 -50
4321 1481 3 -0.8476 -18.97473200691658 -6.983300958465868 -15.89365799200515 55 0 -2
3351 1157 4 0.4238 -14.669278670350355 -4.708551373277756 -18.92364139704475 0 0 10
4322 1481 4 0.4238 -19.076461163986064 -7.440272383532723 -15.010013082724997 -22 0 2
1130 417 4 0.4238 -14.582014722473687 -3.8326377098427136 -17.003273292881442 -10 0 0
3349 1157 3 -0.8476 -15.198856500788706 -4.976872356039693 -19.728347057056695 0 0 -1
5131 1751 3 -0.8476 -17.61730536576485 -3.609658283067048 19.87227774992967 -23 4 -30
314 145 4 0.4238 -15.432739550352858 -6.767501591323314 -14.19111870329348 -1 0 25
4323 1481 4 0.4238 -19.858176890082593 -6.962333729577909 -16.361723726256923 97 0 16
5796 1972 4 0.4238 -14.126792371616103 -7.641673920819057 -17.82283943184718 0 0 0
5445 1855 4 0.4238 -9.723463629760516 -8.076687884104 -18.173105908683294 64 -43 0
5706 1942 4 0.4238 -12.938147479836955 -6.950566090367317 -14.936243351965883 66 -14 -33
1129 417 3 -0.8476 -13.827196138654552 -4.081926573364914 -17.609989789346027 0 0 1
5704 1942 3 -0.8476 -12.556780490069547 -6.303718158018344 -15.596657974508453 17 -55 -25
5705 1942 4 0.4238 -12.723645998011271 -6.637334434744196 -16.524481915881683 -26 18 94
5795 1972 4 0.4238 -13.110090610421883 -7.081482642873632 -18.97137318716987 0 0 0
5794 1972 3 -0.8476 -13.168712143994464 -7.568115194029304 -18.099735485490662 0 0 0
3654 1258 4 0.4238 -10.879651563269993 -6.617830889707876 -16.559110530703364 0 -17 -5
3652 1258 3 -0.8476 -9.979355734219137 -7.01312492948782 -16.741348669164093 0 5 8
3374 1165 4 0.4238 -11.89823336330733 -4.412280361576789 -15.239780756012115 39 0 -77
3373 1165 3 -0.8476 -11.471859850850514 -3.5110001121454646 -15.162972230457063 -7 0 28
3016 1046 3 -0.8476 -10.997578204376124 -3.8270707113266242 -18.04226926447026 0 19 -52
3375 1165 4 0.4238 -10.6532455488627 -3.5770660084477592 -14.592440936999724 4 0 70
3017 1046 4 0.4238 -10.061012593869584 -4.177465188059019 -18.050550889086544 0 53 -1
5153 1758 4 0.4238 -12.266417694881385 -5.122157691460986 -19.045298227887113 -50 0 134
1131 417 4 0.4238 -12.999137193439694 -3.5971600521899805 -17.328352042924 0 0 0
3653 1258 4 0.4238 -9.584861319628384 -7.351680489049646 -15.88709146880683 0 -2 39
3018 1046 4 0.4238 -11.22053909892907 -3.493417702011414 -17.12631941568479 0 -1 -22
5101 1741 3 -0.8476 -9.060354617520126 -7.812236389272913 -14.304582898322025 14 3 9
5444 1855 4 0.4238 -9.379016513765018 -8.03297195220719 -19.76874734725825 62 31 13
5152 1758 3 -0.8476 -12.34813970651079 -5.789459789313872 -19.785588795686895 75 0 -40
2705 942 4 0.4238 -11.041847132691936 -2.891962584877715 -19.536662464298736 0 0 -125
5103 1741 4 0.4238 -8.404708833774455 -8.299410942067137 -14.88146208817125 -19 -4 -54
2190 770 4 0.4238 -7.947926420786524 -4.8539706141406995 -19.05597097584285 -25 0 -37
3831 1317 4 0.4238 -4.675282165048272 -6.61526697892107 -15.479637244972075 0 0 27
2621 914 4 0.4238 -6.723815646775174 -7.803464944505113 -17.16383190464718 0 0 3
2620 914 3 -0.8476 -6.2352680343417095 -6.991643249297674 -16.844039500827503 0 0 -23
2622 914 4 0.4238 -5.991196538823994 -6.419509268803558 -17.62704133180798 0 0 27
5703 1941 4 0.4238 -4.848880078983807 -4.701880685291377 -19.269382244336956 0 64 0
5701 1941 3 -0.8476 -4.467769141283787 -4.41386696379196 -18.390859295831696 0 24 0
5702 1941 4 0.4238 -4.9665657884537 -3.6138880278596313 -18.05733906617166 0 29 0
4180 1434 3 -0.8476 -8.09845844526736 -3.8907307823675152 -17.623573531391475 23 0 0
2697 939 4 0.4238 -7.367873944592408 -5.886463405431014 -15.914989587101958 -59 0 0
4181 1434 4 0.4238 -8.019706249353396 -4.087961137404464 -16.64638386338644 31 0 0
2695 939 3 -0.8476 -7.568300954048412 -5.119445814635797 -15.305469862831055 -3 0 0
1594 572 3 -0.8476 -4.754748024449935 -3.6413204711073397 -14.7385114079765 -1 0 0
3829 1317 3 -0.8476 -4.237274116017986 -6.352125933029666 -14.620040965083634 0 0 47
3830 1317 4 0.4238 -4.437806596547942 -5.392266426719947 -14.42393771387185 0 0 -91
4182 1434 4 0.4238 -7.919211807132251 -2.9199586478552106 -17.78317736885091 3 0 0
2696 939 4 0.4238 -7.304197103741789 -5.358424525904552 -14.371050762016514 -60 0 0
1595 572 4 0.4238 -4.853791918639428 -3.1227172796191214 -15.58777103102809 -1 0 0
1023 381 4 0.4238 -8.52923095473997 -3.747040146236723 -14.387585262188717 31 0 0
2949 1023 4 0.4238 -2.8398628293788954 -4.4340464383591245 -17.23444900083772 0 0 0
2188 770 3 -0.8476 -7.66527573978366 -5.396831487237846 -19.846800089554495 -13 0 136
2948 1023 4 0.4238 -2.337264813567452 -3.552773073083182 -15.954847760609406 0 0 0
941 354 4 0.4238 0.12241338845480806 -7.980827098261079 -16.227282983434147 -16 -73 145
2947 1023 3 -0.8476 -2.2664418913058175 -4.437682269633637 -16.41519564861944 0 0 0
4378 1500 3 -0.8476 -0.378442880683101 -6.405153965018578 -15.637537294092851 0 0 12
4380 1500 4 0.4238 -1.0062903012807656 -5.776418120978203 -16.096338893209314 0 0 14
4358 1493 4 0.4238 0.017001074021219788 -3.41461592196373 -16.314929423205825 0 -45 -116
4359 1493 4 0.4238 1.5180475669770364 -3.1513065313926343 -16.901575983859455 0 18 106
4379 1500 4 0.4238 -0.8148442679710494 -6.771338906614099 -14.815672057396084 0 0 22
4357 1493 3 -0.8476 0.5404018584194701 -3.0422865638065337 -17.081364664468524 0 -5 -39
4456 1526 3 -0.8476 0.27592518243085257 -3.3459966071975282 -19.654069758736206 -5 0 -44
4458 1526 4 0.4238 0.24538984195824756 -3.2947577189379453 -18.655850222181225 3 0 29
543 221 4 0.4238 1.2878327566404912 -6.265883912311852 -14.585310372831577 -87 0 31
4019 1380 4 0.4238 2.3635805834671406 -7.725633432408395 -19.683334024506323 0 -4 101
1742 621 4 0.4238 2.65578956716333 -5.0090287099618545 -19.750870819288245 0 0 17
1827 649 4 0.4238 -0.562449173800474 -4.891940080982705 -19.67228349135715 0 -49 56
506 209 4 0.4238 2.7780552528435773 -4.544972783824454 -14.976609474672133 4 0 -10
5411 1844 4 0.4238 0.3180766051231259 -8.32647948073208 -19.76373093207573 2 0 -44
2756 959 4 0.4238 2.979833042172373 -7.665474910474843 -15.134362489933853 0 23 31
648 256 4 0.4238 8.122411899164739 -8.118943956962617 -19.06442266770295 42 -1 -31
2755 959 3 -0.8476 3.0816667124883947 -8.276071892827872 -15.919729436649572 0 6 -1
505 209 3 -0.8476 3.215252387481588 -3.9198354120643604 -15.623186587577162 3 0 99
1943 688 4 0.4238 5.579892536355122 -6.062194121316349 -17.29944104241037 0 0 -129
1942 688 3 -0.8476 5.037680486477894 -6.003223017686531 -16.4612712977788 0 0 11
1944 688 4 0.4238 4.6441561405399705 -6.899129761457148 -16.255140976524498 0 0 -177
1010 377 4 0.4238 7.18816259818074 -5.016446151104612 -18.55930768415134 0 0 0
507 209 4 0.4238 3.8435994978847985 -4.431855141798922 -16.208862030161857 -11 0 113
3427 1183 3 -0.8476 5.668951093719921 -5.819992602381257 -19.168696013677632 1 4 53
1009 377 3 -0.8476 7.90221054443713 -4.316502359506332 -18.573944570340597 0 0 0
1011 377 4 0.4238 7.7141094421932666 -3.6637569446611016 -19.30779838106002 0 0 0
1797 639 4 0.4238 5.729987088654647 -5.044516643471901 -14.852329282575774 5 8 60
3429 1183 4 0.4238 4.828440143538483 -5.4009206537656205 -19.512091880958504 1 -14 -53
569 230 4 0.4238 3.9273331491281374 -3.1393590224454964 -18.60372751127065 0 0 -3
2324 815 4 0.4238 8.131069860921892 -7.074527485803848 -14.963663933565805 87 0 -2
1741 621 3 -0.8476 3.204475902410673 -4.1866894045604575 19.848051204869112 0 0 1
2354 825 4 0.4238 11.149245864080854 -8.068221296611894 -16.680241018583068 -38 -51 -25
1784 635 4 0.4238 9.057917690760403 -3.9645750321022577 -17.330148845337174 0 0 0
646 256 3 -0.8476 8.956154647447097 -7.626863445522353 -19.314881878216106 -8 1 9