LAMMPS data file via write_data, version 23 Jun 2022, timestep = 7500000

6006 atoms
4 atom types
4000 bonds
1 bond types
2000 angles
1 angle types

-19.668705485245553 19.668705485245553 xlo xhi
-19.668705485245553 19.668705485245553 ylo yhi
-19.668705485245553 19.668705485245553 zlo zhi

Masses

1 22.99
2 35.423
3 15.999
4 1.008

Bond Coeffs # harmonic

1 517.63 1

Angle Coeffs # harmonic

1 37.9505 109.47

Atoms # full

5896 1970 3 -0.8476 -13.850465748540325 -18.621920951579657 -14.76827392994515 0 2 15
5897 1970 4 0.4238 -13.429798929495917 -18.360080958239646 -13.89966623449106 33 0 -30
2131 715 3 -0.8476 -17.170342133171943 -15.305129277193915 -16.506034604075648 3 0 2
2133 715 4 0.4238 -16.704798071270268 -15.90167235343934 -15.852272308804082 3 0 -20
2132 715 4 0.4238 -17.548382273096696 -15.856464618480189 -17.24975163137639 -12 0 5
5166 1726 4 0.4238 -16.404143873002575 -13.750727010409825 -16.31279690787259 96 -43 -4
1792 602 3 -0.8476 -17.365760761236128 -18.52115978482054 -18.80348639079181 -18 -51 -28
1794 602 4 0.4238 -18.21320478221073 -18.394029735835396 -18.288047708237126 2 42 54
5334 1782 4 0.4238 -14.334740099105588 -14.627953545053376 -15.77645127210906 -61 99 40
4434 1482 4 0.4238 -15.232577578877631 -17.50224896525758 -14.963669992726517 40 0 0
4432 1482 3 -0.8476 -16.155272835786967 -17.141119171405094 -14.82869009922474 8 0 0
1650 554 4 0.4238 -18.67833680508269 -13.998099831687322 -17.000041958017018 22 22 -2
5378 1797 4 0.4238 -17.996850241165642 -19.153754055328527 -15.105823826342508 -13 27 -11
4433 1482 4 0.4238 -16.64669926165704 -17.71771869335696 -14.175977602867274 20 0 0
1793 602 4 0.4238 -16.79948143040456 -19.209040561404453 -18.349451325544294 -1 17 35
1637 550 4 0.4238 -17.1783886223877 -15.296811038167483 -13.938904745679302 -92 -4 0
5377 1797 3 -0.8476 -18.85655003898661 -18.643202740938143 -15.12175026558567 -2 -18 -1
5379 1797 4 0.4238 -19.032903409622065 -18.259037956796192 -14.215484882637487 60 -1 -2
1648 554 3 -0.8476 -19.17388817705817 -13.240025955981796 -17.42401525054028 -46 -29 -29
5332 1782 3 -0.8476 -13.72486924871234 -15.420432087153676 -15.782418994530632 -12 30 15
2883 965 4 0.4238 -14.227913504372921 -19.474955562754385 -19.2595777250123 -50 -34 -20
5898 1970 4 0.4238 -13.356796142539412 -18.18795651966462 -15.521908599867157 28 12 -11
1636 550 3 -0.8476 -17.598810214457924 -14.856123530625528 -13.145784133043074 -20 1 0
2174 729 4 0.4238 -15.676853076891202 -13.783521726962276 -19.625751165080946 -1 149 14
2175 729 4 0.4238 -17.293207421163373 -13.551114083689114 -19.622311835122993 11 95 12
5333 1782 4 0.4238 -13.14939302699209 -15.404313529510782 -14.964759007086805 46 34 -8
1731 581 4 0.4238 -13.170846879611508 -16.720201559912397 -16.830125601420615 -3 19 15
1638 550 4 0.4238 -18.572773384947947 -15.080980778885419 -13.116873469169002 13 25 0
1730 581 4 0.4238 -12.818976139501379 -17.898180139983726 -17.904918590050077 -7 27 20
1729 581 3 -0.8476 -12.541028794960395 -17.466050712878694 -17.04700865881988 6 14 4
5858 1957 4 0.4238 -11.197720638277838 -16.348402294037474 -17.91503119069857 112 0 -22
5857 1957 3 -0.8476 -10.76691170133782 -15.651878936578598 -18.48884224325311 10 0 20
3229 1081 3 -0.8476 -11.025444368721567 -17.499561401222973 -14.780462115522324 0 -46 23
3230 1081 4 0.4238 -11.277077785369508 -16.619347863226913 -14.37808662141135 0 13 12
3231 1081 4 0.4238 -11.260320342096984 -17.501034714623994 -15.752486538304574 0 -69 9
5035 1683 3 -0.8476 -8.458067272433563 -15.399754169221398 -15.68279061165782 -22 8 -2
2149 721 3 -0.8476 -11.757497169724829 -15.12443340610531 -13.647187473256235 -26 1 -72
5036 1683 4 0.4238 -8.981401786724927 -14.658172619152138 -15.263054164068206 33 36 -33
2151 721 4 0.4238 -11.027086548720437 -14.484526421386663 -13.885974852077059 -13 -11 47
5037 1683 4 0.4238 -8.97966614581337 -16.250880841289923 -15.62347662354646 70 64 14
4700 1571 4 0.4238 -7.902172626410644 -15.044160546403523 -18.37709821433405 1 -24 -52
4699 1571 3 -0.8476 -8.014999878982787 -15.799894017957117 -19.022184997003208 1 6 -12
5859 1957 4 0.4238 -9.790631602837323 -15.849693573120561 -18.576859641493957 -36 0 -4
3144 1052 4 0.4238 -9.457345966740164 -17.780690056075844 -13.890371069723395 0 -1 1
3142 1052 3 -0.8476 -8.50715377559586 -18.060315690603765 -13.752729659328317 0 -8 1
1260 424 4 0.4238 -11.35042497142718 -13.836492424134633 -18.840232238582693 0 0 2
5587 1867 3 -0.8476 -7.104088393659853 -13.725602968215616 -17.473660214593465 3 1 -13
5589 1867 4 0.4238 -7.4043625447926535 -14.113552039917126 -16.602263924475206 -51 -5 5
3550 1188 3 -0.8476 -9.960305258756545 -13.408578671290693 -14.482895222588 26 16 -10
3143 1052 4 0.4238 -8.424773148737117 -19.045716262074414 -13.90172609169343 0 -15 1
3996 1336 4 0.4238 -6.702727793082264 -17.24776262424164 -18.500339277164876 11 8 50
3102 1038 4 0.4238 -0.3374060749634794 -13.367876358069799 -17.689637153105085 0 0 -43
5534 1849 4 0.4238 -6.089823178501551 -14.002538167573727 -19.372944263630544 0 31 -36
3995 1336 4 0.4238 -5.311399474693912 -17.71129374735025 -17.782027936124962 7 0 101
3994 1336 3 -0.8476 -6.011091799992913 -17.96816098015535 -18.44869891248966 -34 -3 -34
4512 1508 4 0.4238 -6.3036365653677775 -18.027961711186656 -14.467414880382039 55 9 0
4510 1508 3 -0.8476 -5.77743234041652 -18.87728643299207 -14.425502502145685 -6 -65 0
878 297 4 0.4238 -3.4094752430729987 -15.90444618030682 -16.72582682752235 0 -12 20
877 297 3 -0.8476 -3.4854306644595376 -16.170916013931716 -15.764981030969942 0 29 2
4582 1532 3 -0.8476 -4.99708791501728 -14.054980537211273 -14.251704122860772 21 -21 1
879 297 4 0.4238 -3.71402495165428 -17.142627496930608 -15.705639096827467 0 -28 -6
2900 971 4 0.4238 -1.7999938194140677 -16.001438201309938 -15.965596541993998 -9 -12 0
4583 1532 4 0.4238 -5.075858596361933 -14.815176088831757 -14.896605596493847 32 25 4
2899 971 3 -0.8476 -0.8039759217909249 -16.08886103863506 -15.948113136839597 20 3 0
4488 1500 4 0.4238 -2.495539704436676 -15.711406054049574 -18.764001326654395 -3 4 -46
4486 1500 3 -0.8476 -3.3529883922267816 -16.10243487890876 -18.42951929859313 3 1 1
2359 791 3 -0.8476 -3.59239748734364 -19.13954867759516 -16.27138916277004 14 -52 -5
2901 971 4 0.4238 -0.515888423718756 -16.441233181630675 -15.057697754450622 74 -51 0
3101 1038 4 0.4238 -0.9107529140652091 -14.265580290547199 -16.451886114225722 0 0 0
4487 1500 4 0.4238 -3.9316946717183323 -16.35041649689859 -19.206438963855845 -2 -3 -11
2361 791 4 0.4238 -3.2779375865105695 -19.284785813530387 -17.20948421129351 44 43 11
3877 1297 3 -0.8476 -0.33915478723647896 -16.881449995412712 -13.40592063584476 -1 0 1
3100 1038 3 -0.8476 -0.7984124616865343 -13.335941225574313 -16.80281500752859 0 0 -7
3717 1243 4 0.4238 -2.9032029219043625 -19.4111611770252 -14.683687627206988 0 3 0
4584 1532 4 0.4238 -4.8559023088942315 -14.413863988909494 -13.329061553130412 23 0 -8
5664 1892 4 0.4238 -0.8757793460603089 -14.941401249771744 -13.400607341513687 1 17 -66
4733 1582 4 0.4238 -0.3032505542402903 -16.98069508710785 -17.29699065683777 -33 -7 14
4732 1582 3 -0.8476 -0.033008595505215566 -17.181463262354715 -18.238617691025865 -36 -23 4
4511 1508 4 0.4238 -6.384790065525026 -19.65420829732998 -14.591361050181343 -23 -15 0
2302 772 3 -0.8476 -1.2048928219723924 -14.877257778462358 -19.607230764078196 0 0 -78
5164 1726 3 -0.8476 -15.69739575569788 -13.07152665848399 -16.114822131032586 -31 -55 26
5392 1802 3 -0.8476 -14.377974238723397 -13.08175220065845 -19.030778233144417 22 1 58
5394 1802 4 0.4238 -13.418729046673468 -12.960742039717687 -19.286132787747743 -67 1 41
5393 1802 4 0.4238 -14.466521235439178 -13.034706051554748 -18.0358177962636 -32 1 93
1649 554 4 0.4238 -19.144074141897203 -12.443282832652422 -16.82043250356251 144 -8 5
5165 1726 4 0.4238 -15.783386640308715 -12.305589784819613 -16.75196131265238 -13 20 -15
1761 591 4 0.4238 -14.666522055986604 -12.15306086434458 -15.121305062491954 -82 93 5
1595 536 4 0.4238 -14.634121565700788 -8.424508863390619 -17.330356537251394 -30 -50 -21
1594 536 3 -0.8476 -14.798365827062769 -8.896564218526892 -18.196490233039857 26 24 4
1759 591 3 -0.8476 -13.85466947070507 -11.911387618467995 -14.589807696018024 12 -1 -11
1979 664 4 0.4238 -15.649214111840626 -10.416218877695357 -18.203584509368124 0 0 -47
1327 447 3 -0.8476 -15.859299656460077 -9.910502287601565 -13.52127555129048 0 -26 0
1328 447 4 0.4238 -15.119764084296158 -10.583619918603391 -13.521069630942055 7 18 0
5819 1944 4 0.4238 -16.84252223581343 -9.647632664058172 -14.905430272821281 -39 -20 23
5818 1944 3 -0.8476 -17.311497128431185 -9.454741937806446 -15.767321081283212 -64 7 -11
1978 664 3 -0.8476 -16.244834764808342 -11.104354300020782 -17.78921062915694 -2 0 -18
4304 1439 4 0.4238 -18.970198394676654 -12.28885275315102 -18.922517169401463 17 0 21
1980 664 4 0.4238 -16.985406747169336 -11.329066637575995 -18.422501670108115 13 0 17
5820 1944 4 0.4238 -16.822891136487076 -9.897676239315238 -16.519034730792665 -95 -4 2
5925 1979 4 0.4238 -18.568783090855895 -10.833140201772453 -15.464523541592852 16 -19 0
2434 816 3 -0.8476 -19.207653144667123 -7.101719255964374 -16.921167703388704 7 0 0
993 335 4 0.4238 -16.984601274009826 -7.698857224528973 -14.895813794202734 -20 0 3
2436 816 4 0.4238 -18.560036561973998 -7.858336033680383 -17.01130003703334 4 0 0
1596 536 4 0.4238 -14.215268880530289 -8.502264828311265 -18.906790156736317 33 135 7
991 335 3 -0.8476 -16.84995582799505 -6.70799228826179 -14.90338345315884 3 0 -9
555 189 4 0.4238 -13.96245186991336 -7.3085704870397 -14.969859198666395 16 0 16
553 189 3 -0.8476 -14.514624499237275 -7.3044252267888385 -15.803578715112181 19 0 -15
4303 1439 3 -0.8476 -18.320340352895187 -11.701503860726557 -19.404913091892226 -59 0 -34
1760 591 4 0.4238 -13.695501718799818 -12.607187394299999 -13.889430433838355 17 -39 -2
554 189 4 0.4238 -15.460629850855458 -7.07390899608387 -15.575683618472702 43 0 13
5923 1979 3 -0.8476 -19.39350199043316 -11.345719467321574 -15.22556483070531 4 2 -29
3169 1061 3 -0.8476 -13.038282713276784 -7.593143923057831 -13.48290526311876 -23 1 3
3552 1188 4 0.4238 -9.41529066675385 -12.906838140085704 -13.811169411434618 10 -25 94
1258 424 3 -0.8476 -11.451301493324975 -12.895389843512069 -19.162955605286406 0 0 13
516 176 4 0.4238 -12.57543045342942 -8.924679417755593 -17.637626345664145 0 23 -57
5588 1867 4 0.4238 -7.092008514316241 -12.727846791150073 -17.4077972953556 -33 -14 -26
3551 1188 4 0.4238 -10.471085928722207 -12.7610099904721 -15.048366654562457 -44 -8 20
83 32 4 0.4238 -12.244255837362994 -11.979723366215179 -15.608341878003383 -1 -10 40
514 176 3 -0.8476 -11.813933176466259 -9.131351539561653 -17.023289966756938 0 -21 -35
515 176 4 0.4238 -11.568987841067145 -8.310050187071612 -16.508055316684445 0 1 33
84 32 4 0.4238 -11.682259423520954 -10.54569913976197 -16.150892384072357 -1 256 -16
82 32 3 -0.8476 -11.4320684805518 -11.404052230834786 -15.702969935022624 -1 0 1
4469 1494 4 0.4238 -8.019275616839762 -8.03439237397533 -16.745864114366107 34 0 -46
4470 1494 4 0.4238 -9.214741985789335 -8.89011544136956 -16.035072512540015 0 0 132
4468 1494 3 -0.8476 -8.442995711104832 -8.936941933148146 -16.6692767230673 0 0 10
5840 1951 4 0.4238 -7.383005997087608 -10.279703941717326 -17.29723278788716 9 0 -28
1693 569 3 -0.8476 -9.84481479629859 -8.135634121381344 -14.209977496862958 1 0 -8
1695 569 4 0.4238 -10.224786671028642 -9.015147924309673 -13.92348679758786 5 0 -21
1694 569 4 0.4238 -8.982928623656168 -7.972603258504463 -13.72979707966505 15 0 -3
5943 1985 4 0.4238 -8.973306250271154 -10.377310267582025 -18.596832615087106 6 20 68
1257 423 4 0.4238 -8.012570898507603 -11.471847105988381 -13.564499983351697 -9 -60 0
5941 1985 3 -0.8476 -9.950137959400505 -10.558963515887529 -18.709979301603852 -5 35 35
5942 1985 4 0.4238 -10.465759482184165 -10.050821779779188 -18.020104520184596 6 12 45
4577 1530 4 0.4238 -10.656347307308113 -7.072150251349149 -15.537353816431324 6 1 -2
4007 1340 4 0.4238 -11.197903317855394 -10.805203869534662 -14.089611513761913 20 -18 42
1259 424 4 0.4238 -10.703796748096803 -12.337468795323502 -18.80245438474682 0 0 -36
5839 1951 3 -0.8476 -6.811495036207258 -11.034436691117369 -17.619343156952173 1 0 -5
4006 1340 3 -0.8476 -10.878461990299103 -10.423028112873954 -13.222490440613242 13 -49 -16
3171 1061 4 0.4238 -12.090845896155964 -7.859675575375936 -13.659892664644197 57 1 -41
3223 1079 3 -0.8476 -6.627681143930811 -11.877732862366942 -14.669903854857223 0 4 -4
3389 1134 4 0.4238 -7.1135703525519505 -6.589430358014804 -18.08416414437949 0 0 40
2546 853 4 0.4238 -6.990317065210528 -9.323691245559894 -13.167932398536134 -40 12 -99
3225 1079 4 0.4238 -6.420033084843863 -11.501089294117213 -15.572689680649145 0 15 -23
5841 1951 4 0.4238 -6.30325236168929 -10.74502730556247 -18.430473248158254 2 0 -28
3224 1079 4 0.4238 -6.159614691796252 -12.754413850368339 -14.558792846282447 0 14 -17
801 271 4 0.4238 -3.9505837211227903 -12.66812179085265 -14.947881749266632 0 -7 -23
4353 1455 4 0.4238 -5.68085619585288 -7.753892946433455 -16.04443925096035 -4 0 42
800 271 4 0.4238 -2.7577044494103933 -11.954651723406398 -15.80498522409624 0 63 62
799 271 3 -0.8476 -3.5743762434719075 -11.79260626607279 -15.251100007395888 0 -3 -12
4153 1389 3 -0.8476 -4.344774730588645 -9.185020724369704 -13.830767692580102 0 0 -23
4351 1455 3 -0.8476 -5.554833465014054 -8.602846476140964 -16.55766089485663 0 0 0
4352 1455 4 0.4238 -6.127274836562286 -9.32035273824671 -16.160803445907675 -4 0 17
4154 1389 4 0.4238 -4.227530517616556 -10.110055981618293 -14.192103531656755 0 0 18
1384 466 3 -0.8476 -2.0104442842730053 -8.772299727370397 -14.987009069494125 -4 0 23
1386 466 4 0.4238 -1.701574548333531 -9.71354606254674 -15.123591791605525 -6 0 -35
1385 466 4 0.4238 -2.9448007984455478 -8.776493835319062 -14.630694119939852 3 0 152
4461 1491 4 0.4238 -1.0034531107159343 -7.580546960065283 -18.632728446625443 0 -2 13
3050 1021 4 0.4238 -2.9349210311245693 -8.529834900695967 -18.235488783098077 0 13 12
3049 1021 3 -0.8476 -3.6567420586711537 -9.119355598964173 -18.598035005282075 0 0 -15
3051 1021 4 0.4238 -4.336016722926855 -9.291735587836254 -17.884682993481665 0 14 -29
1757 590 4 0.4238 -1.9864784171586947 -7.392924093118608 -16.23851512479656 0 1 -17
1756 590 3 -0.8476 -2.0254960248921843 -7.000519416916408 -17.157480133087805 0 1 14
4327 1447 3 -0.8476 -5.772740404409117 -6.720283423841558 -13.895239509547874 0 0 0
1641 551 4 0.4238 -1.8975738400940314 -7.2194642730271275 -13.98544044308229 0 -18 8
4329 1447 4 0.4238 -5.388516813540285 -7.628708406452381 -14.059973844511788 0 0 0
5146 1720 3 -0.8476 -0.4939086464338263 -11.110549231120823 -14.587809079762653 0 12 30
5148 1720 4 0.4238 -0.35492276681508494 -11.550350800867678 -15.475084829793575 0 1 32
4459 1491 3 -0.8476 -0.57330978096666 -7.433958879586674 -19.523508262230877 0 -16 -18
1800 604 4 0.4238 -0.04923529695115064 -9.171453058170759 -18.98362671146804 -15 1 6
992 335 4 0.4238 -17.691212569447828 -6.259597911275023 -15.20542581367871 -14 0 23
4410 1474 4 0.4238 -16.55661468460109 -2.733835676587782 -18.07900777759212 0 -18 -45
4409 1474 4 0.4238 -16.258063712642866 -2.8049740380617165 -16.475127011733854 0 31 -17
4408 1474 3 -0.8476 -16.854304873115325 -3.128627391150719 -17.209801009439186 0 1 50
5929 1981 3 -0.8476 -18.089053106167107 -5.4216535953191585 -18.75735012053306 0 0 -27
5930 1981 4 0.4238 -17.863158426114186 -4.757641964512366 -18.04456619561167 0 0 10
5931 1981 4 0.4238 -18.88055586417986 -5.961636635749236 -18.471094107172092 0 0 11
4231 1415 3 -0.8476 -14.946778397653375 -2.766997356257672 -15.133036428324424 -16 17 -6
4233 1415 4 0.4238 -15.057812516260512 -3.651497162150032 -14.67989979750299 -14 6 43
1029 347 4 0.4238 -18.61612038493203 -2.045817713000375 -17.123657516285782 -11 131 -16
2597 870 4 0.4238 -14.219674778076516 -5.84259599560775 -17.16893558715023 11 0 15
4232 1415 4 0.4238 -14.004499644552824 -2.451296617883944 -15.02148138898653 -38 7 37
3106 1040 3 -0.8476 -18.23996093276731 -3.6560054377930276 -13.969068545790899 -2 -30 1
3107 1040 4 0.4238 -18.604073915510952 -4.029150990069103 -14.822405965573465 -52 -25 49
2170 728 3 -0.8476 -17.3079305017422 -1.125699847543204 -19.188709742067704 5 0 31
5092 1702 3 -0.8476 -15.02672880046802 -4.983010558563071 -13.466745899629744 0 37 -6
3108 1040 4 0.4238 -18.089294814104424 -4.399578757414246 -13.3176093797366 22 92 -23
5093 1702 4 0.4238 -14.124428508666588 -5.414007622563647 -13.456938692205116 0 31 47
443 152 4 0.4238 -15.337496298814761 -1.0704694844273865 -14.855022507300564 2 0 33
2596 870 3 -0.8476 -13.929074880042215 -5.5007737445041185 -18.062641259566725 -26 0 0
4774 1596 3 -0.8476 -14.093060702525618 -0.8874605940913146 -19.64547793510272 53 -5 -1
2171 728 4 0.4238 -17.3446230747807 -0.5269020584514998 -18.3886504350932 6 0 -3
5094 1702 4 0.4238 -15.703059038166614 -5.633434625592054 -13.812472543165278 0 -31 23
1027 347 3 -0.8476 -19.53807813590828 -2.1116108600038883 -16.74199641612564 9 9 -20
3095 1036 4 0.4238 -15.14901902915291 -6.397190582487823 -19.405911474062194 106 0 -14
906 306 4 0.4238 -13.513646857556523 -4.195751599705775 -19.38339426382263 2 0 -10
442 152 3 -0.8476 -15.7363800296665 -0.15866264783759992 -14.757548739288659 10 0 17
804 272 4 0.4238 -17.59695563324779 -1.886735223362697 -13.207029228506133 -4 0 -17
5349 1787 4 0.4238 -19.59482102056387 -5.629875043286275 -16.320875531177723 -5 24 -18
3388 1134 3 -0.8476 -7.619514987644449 -6.521336044607797 -17.22428980250654 0 0 29
1939 651 3 -0.8476 -8.977757585881626 -0.11823508770867701 -14.061159827894487 0 0 -16
4576 1530 3 -0.8476 -11.159987832891648 -6.498059877971765 -16.182928355904718 -27 1 -7
2598 870 4 0.4238 -12.95588304039928 -5.691004733637604 -18.19191027447659 -28 0 -18
1428 480 4 0.4238 -12.576422214143044 -0.6544227072547935 -15.713582292599762 15 -52 9
1426 480 3 -0.8476 -12.45122573819238 -1.408618853638571 -15.068978070932456 -12 26 21
1427 480 4 0.4238 -11.477295412005398 -1.5199706659842258 -14.871339135647053 42 97 -32
4578 1530 4 0.4238 -11.475301248356075 -5.670930998842371 -15.717702255847744 28 1 53
1015 343 3 -0.8476 -10.832491512097363 -5.147900287957131 -18.344347286860916 -34 0 12
4592 1535 4 0.4238 -12.31840331628611 -3.2754085223133833 -15.01077367968989 -23 1 0
1016 343 4 0.4238 -10.32545506722554 -4.297130364542522 -18.20612237961657 -4 -19 12
1017 343 4 0.4238 -10.919490999596208 -5.629512361346518 -17.472290728325884 -42 11 22
4593 1535 4 0.4238 -11.192698189574402 -4.17731332631675 -14.24527894497054 -19 1 0
4591 1535 3 -0.8476 -11.900146131506421 -4.181835637289452 -14.952029948749429 0 1 0
1345 453 3 -0.8476 -9.218519842846103 -3.1418641383521964 -18.3152239454858 -16 0 -11
1347 453 4 0.4238 -9.451837350016506 -2.596150943683524 -17.510388503907873 46 0 80
1346 453 4 0.4238 -8.296522172903419 -2.905805089289843 -18.62213832132054 -19 0 88
5498 1837 4 0.4238 -9.078290586601932 -1.158889300879612 -15.477514294271284 -1 0 -5
5497 1837 3 -0.8476 -9.457635286032916 -2.0065830581235984 -15.848341636654379 -1 0 26
5499 1837 4 0.4238 -9.019913103842805 -2.7892504856393594 -15.405813639356756 -1 0 74
619 211 3 -0.8476 -8.181107727247714 -3.9297630186928223 -14.645617918143579 -26 0 -6
621 211 4 0.4238 -7.476552789343648 -4.587060258668868 -14.378104819205234 16 0 25
620 211 4 0.4238 -8.796996516884741 -3.768947632897041 -13.87437168013761 -33 0 20
3390 1134 4 0.4238 -7.989350881924765 -5.597300012261713 -17.127444468150934 0 0 2
3681 1231 4 0.4238 -9.317942134457498 -5.984853086133155 -19.367167729366408 60 0 -35
1820 611 4 0.4238 -6.834580577327876 -0.5507199680142304 -16.793969694061296 0 0 12
1940 651 4 0.4238 -8.372057896864144 -0.6416178014594267 -13.461828159287789 0 0 -4
1758 590 4 0.4238 -2.8461654923334803 -6.435728767012454 -17.24417162616121 0 1 31
5635 1883 3 -0.8476 -6.339593574219673 -3.2682685100652464 -18.850340196952533 0 -13 6
5637 1883 4 0.4238 -6.414501585143298 -4.253861616390748 -19.001983820880294 0 -3 8
938 317 4 0.4238 -0.6189128638640004 -0.7661952999372952 -17.80003344257833 0 30 5
111 41 4 0.4238 -4.85733177642435 -5.830529318366304 -18.498282003367695 -1 0 4
110 41 4 0.4238 -3.445769723307633 -5.010873880316072 -18.450490363976723 -1 0 20
109 41 3 -0.8476 -4.057488717342017 -5.613934644142023 -17.938516128315616 -1 0 6
5346 1786 4 0.4238 -2.864318070342123 -3.9784663411867407 -14.58566339499847 24 0 -22
3810 1274 4 0.4238 -4.96481631168808 -5.390951346610349 -14.638386251227383 0 -53 20
3809 1274 4 0.4238 -4.169021159643526 -5.217630301508325 -16.053764785300558 0 -148 -20
3894 1302 4 0.4238 -5.999532392768038 -2.4976698420706067 -17.380276620201844 0 -2 5
3808 1274 3 -0.8476 -4.332189055482749 -4.813037156190189 -15.153942228747919 0 -28 43
5038 1684 3 -0.8476 -3.2210132569475967 -2.473080705735526 -17.239580998903037 -5 -21 -2
5039 1684 4 0.4238 -4.135272777206815 -2.0710694699434753 -17.189409110443975 22 -10 -4
3892 1302 3 -0.8476 -5.830934894984976 -1.9733232847720696 -16.545629623039446 0 0 -42
3893 1302 4 0.4238 -6.031177120647233 -2.542569075960934 -15.748219887187705 0 0 -13
5040 1684 4 0.4238 -3.029182384359414 -2.9714466461784146 -16.39410310797894 -10 -84 -10
5344 1786 3 -0.8476 -1.953513266181628 -3.5748914265175564 -14.672631024430952 -1 0 -31
939 317 4 0.4238 -1.923956406818696 -1.6906010306518775 -18.13012721574423 0 6 28
5345 1786 4 0.4238 -1.9034902524684472 -2.7428385058308398 -14.120194128664679 -14 0 38
937 317 3 -0.8476 -1.2292252573534828 -1.088530050678038 -18.52364875723669 0 11 23
5366 1793 4 0.4238 -0.8035299887775953 -5.056721080997517 -17.564593314817014 0 1 -6
1640 551 4 0.4238 -1.679780132054291 -5.6424718229176705 -14.349154240948517 0 -15 13
1639 551 3 -0.8476 -1.934459147163407 -6.286378551413835 -13.627681321362521 0 -11 -8
5626 1880 3 -0.8476 -2.0694280063355093 -4.665784335778359 -19.475026367546363 0 29 -4
1923 645 4 0.4238 -0.07802158711125852 -4.187242220535553 -13.231047574936907 -36 1 -38
5773 1929 3 -0.8476 -0.1016943176762674 -0.2806198733030941 -16.29170050709525 0 0 -5
2449 821 3 -0.8476 -6.443358973322435 -5.969749339694363 -19.631543991041983 27 0 1
4460 1491 4 0.4238 -0.37104093179890374 -6.461582062488612 -19.640001443240656 0 9 -14
328 114 3 -0.8476 -18.549615552643385 -17.792673429491874 -12.555178562827368 -15 14 0
3334 1116 3 -0.8476 -19.138529037363963 -18.477490292112464 -9.13382740832371 11 -37 0
1178 397 4 0.4238 -14.754395466068285 -17.890898207882223 -8.390177036627858 78 58 0
1393 469 3 -0.8476 -16.797702551385758 -17.970676031383533 -10.299788434218545 -27 17 13
1395 469 4 0.4238 -17.669169449625887 -18.140709431362204 -9.839749532155842 47 -37 -14
1394 469 4 0.4238 -16.134281035897292 -18.6665510948811 -10.024778866110019 1 16 25
5410 1808 3 -0.8476 -15.468439652264253 -15.392910283859752 -10.338864638803976 13 -25 0
5412 1808 4 0.4238 -16.08344036369248 -16.11092417237069 -10.664794381153348 13 5 0
5411 1808 4 0.4238 -15.929576291389164 -14.507467434165864 -10.39669206870844 8 -3 0
4996 1670 3 -0.8476 -15.293266216948417 -16.08280831938241 -7.479046807261187 -15 -5 0
4997 1670 4 0.4238 -15.426680640459368 -15.72504308773728 -8.403279085620422 40 -64 0
4998 1670 4 0.4238 -14.632419374966961 -15.511295892315502 -6.992574274368176 -70 -8 0
603 205 4 0.4238 -18.170161043822734 -17.933818239099647 -7.641603275065742 4 -14 -24
330 114 4 0.4238 -17.882452503133504 -17.80511920554076 -11.810370373872129 7 56 0
1177 397 3 -0.8476 -14.223197513194451 -18.73399610396847 -8.473932311661201 12 -22 0
1179 397 4 0.4238 -14.382863875005528 -19.14057370428944 -9.373489475549562 7 58 0
4971 1661 4 0.4238 -13.738089837754996 -15.94624283897532 -10.35440154629254 -8 -25 0
602 205 4 0.4238 -16.921845114098577 -17.072296244665473 -7.036529285873797 -10 -10 24
601 205 3 -0.8476 -17.674586024977746 -17.68969371293664 -6.8080506642776 -18 -2 7
329 114 4 0.4238 -19.206726358465467 -17.05465809414378 -12.40175336423913 -41 8 0
1914 642 4 0.4238 -14.399266552007367 -14.560902216922686 -12.53462539388287 12 55 8
1912 642 3 -0.8476 -13.697942214378124 -13.84926138246205 -12.493254958049935 -10 -17 -6
5318 1777 4 0.4238 -17.351995940813726 -13.634046728669981 -11.692287250789011 13 37 41
5317 1777 3 -0.8476 -16.92185162184347 -13.246454386127079 -10.876965987698886 -1 63 23
3336 1116 4 0.4238 -19.211161328705852 -19.47316702296688 -9.07592738122358 -18 181 0
2150 721 4 0.4238 -12.335084303157307 -14.72117604534896 -12.93741523575904 -11 24 -88
2439 817 4 0.4238 -12.374972005898474 -17.68400869512261 -11.637187248900954 -39 5 -2
2438 817 4 0.4238 -12.137090966518706 -18.982069687199395 -12.598996364668858 24 -35 -4
4969 1661 3 -0.8476 -12.777173128705694 -16.04664793579092 -10.096410656364858 70 4 0
2437 817 3 -0.8476 -12.766033121469516 -18.238584168380857 -12.371705631840435 -4 10 3
4970 1661 4 0.4238 -12.32893947568668 -15.153229184753329 -10.12625280547837 -113 -30 0
5003 1672 4 0.4238 -12.213786304911698 -18.39272407660515 -8.186828125696763 10 -21 73
5004 1672 4 0.4238 -12.02670490305046 -17.278576844467864 -9.365939233346992 18 -35 36
5002 1672 3 -0.8476 -11.54949280118827 -17.92230728105631 -8.767708667972327 1 12 52
130 48 3 -0.8476 -8.855171952790071 -17.640482816136593 -9.008857689081998 1 4 0
4261 1425 3 -0.8476 -8.053809517289952 -15.288829174500902 -7.71970571997209 5 -8 -17
737 250 4 0.4238 -7.435033788637577 -17.422669027602037 -11.976939967352976 -13 -40 0
738 250 4 0.4238 -7.3078479810129044 -16.86792260085795 -10.446349598432526 23 20 0
736 250 3 -0.8476 -6.801899597328657 -17.239043409340262 -11.2249933457593 -8 9 0
3999 1337 4 0.4238 -8.712559112173608 -14.717558241823195 -9.08350163614728 0 4 1
132 48 4 0.4238 -8.616962760771708 -16.83706067113389 -8.46317531741515 -51 13 0
131 48 4 0.4238 -9.84454439218237 -17.782668687529174 -8.978437694244821 52 -4 0
3997 1337 3 -0.8476 -8.794324832827012 -14.186850315804492 -9.927103142550179 0 0 1
3998 1337 4 0.4238 -9.758106601831361 -13.985778593827888 -10.102302653147234 -7 0 1
4627 1547 3 -0.8476 -11.874374208532288 -13.422242660961164 -9.988698079865907 -27 -10 -16
3006 1006 4 0.4238 -8.009235536724955 -19.324443785937266 -9.038567670012146 7 0 0
3608 1207 4 0.4238 -7.2395071631636565 -13.646263961985904 -10.744396826610267 -59 -11 0
4262 1425 4 0.4238 -7.082328581533557 -15.508295932128291 -7.6299268745631075 -7 -9 31
4263 1425 4 0.4238 -8.394453838860045 -14.923570615449565 -6.853363416144084 22 44 42
3607 1207 3 -0.8476 -6.578399069180932 -13.234820278818084 -11.37181330071804 27 -6 -5
5395 1803 3 -0.8476 -9.411907059679582 -19.484165726818446 -6.624927404962769 0 6 0
1580 531 4 0.4238 -10.95339402388679 -19.615757074459555 -9.318416452876528 0 13 0
4628 1547 4 0.4238 -12.389433537510518 -13.304474931146682 -10.837723942513604 45 -4 56
3609 1207 4 0.4238 -5.7792702072161894 -13.830643444609327 -11.451743848733182 -85 -27 19
212 75 4 0.4238 -5.369378976692869 -18.258585824882463 -11.826267894880528 56 8 8
2126 713 4 0.4238 -5.671087486961388 -15.88537249604498 -11.591920402580756 2 -26 -36
3152 1055 4 0.4238 -1.79819775711053 -19.141495326312015 -12.645053524841686 -20 -7 23
5662 1892 3 -0.8476 -1.3041489668074187 -14.280625874483343 -12.784267029342363 -3 -3 0
213 75 4 0.4238 -4.392939596300131 -19.212263970535975 -12.722756022764443 18 -135 -36
211 75 3 -0.8476 -4.714173227201081 -19.013464179178833 -11.796857431315638 -18 23 50
4706 1573 4 0.4238 -2.0057378265645536 -15.071846258823976 -7.940418410931612 0 113 0
2125 713 3 -0.8476 -4.8884395996126395 -15.302052688143288 -11.809179457759624 8 -16 20
5734 1916 3 -0.8476 -2.422943202160704 -16.09197253499675 -11.056958962076937 7 30 31
5736 1916 4 0.4238 -2.0842251880599187 -17.02777394924389 -11.15466171863913 -21 24 -59
5735 1916 4 0.4238 -2.0249703680208686 -15.517101104855112 -11.771899864483409 -32 136 18
4840 1618 3 -0.8476 -5.325281148194113 -16.225538918186395 -7.399281743189671 -62 29 -30
2127 713 4 0.4238 -4.041823642485785 -15.81812180682386 -11.67912071348932 7 44 -7
4705 1573 3 -0.8476 -2.517643044886764 -15.837850576825245 -8.329250573903773 0 21 0
4707 1573 4 0.4238 -2.4914706135341134 -15.783779188589643 -9.327444604865676 0 37 0
3151 1055 3 -0.8476 -1.1135001705359424 -18.911626642774777 -11.953425225827308 -5 15 -1
5423 1812 4 0.4238 -3.8763363133813358 -19.44209899948186 -9.837067850717391 -5 -11 -55
4842 1618 4 0.4238 -4.475976300012236 -15.894659255646571 -7.810622011008172 -13 -3 34
5663 1892 4 0.4238 -0.6332202091024768 -13.58782774946544 -12.519908553338652 7 -66 16
5424 1812 4 0.4238 -2.6074757874552206 -18.76379977934031 -9.064714493772104 -36 -15 -46
4841 1618 4 0.4238 -5.2898663659068665 -17.22151993123308 -7.31701239966401 64 -55 -67
3879 1297 4 0.4238 -0.5913728213563626 -17.706763467510925 -12.900704077448424 -1 0 1
5422 1812 3 -0.8476 -3.1725610686976804 -19.58527742365953 -9.14122228956263 -17 5 38
4066 1360 3 -0.8476 -0.0351900051842684 -14.430085019322865 -7.863158487808685 -1 20 -3
3420 1144 4 0.4238 -4.644619728424351 -19.652890421532607 -7.203032978617348 0 -39 1
3419 1144 4 0.4238 -6.007502350128752 -18.956291002700294 -6.633887294727897 0 -13 1
1913 642 4 0.4238 -14.096053111223334 -13.010089853807221 -12.122716250955943 -17 52 61
5526 1846 4 0.4238 -19.432756464938365 -12.879889646391838 -9.876459059045038 5 -3 27
5319 1777 4 0.4238 -17.51590968345679 -12.541220761088397 -10.490001432793584 -7 -45 -8
3170 1061 4 0.4238 -13.402369233785867 -8.138264918655207 -12.727733136479054 -87 1 -5
3067 1027 3 -0.8476 -19.249022561204253 -8.448107084535955 -7.085981152472857 -16 0 0
1329 447 4 0.4238 -15.696993716572049 -9.236782758433877 -12.800332396152552 0 28 0
1399 471 3 -0.8476 -17.473152435018704 -12.264555220686923 -7.222981917859877 19 0 -20
5525 1846 4 0.4238 -18.41425050578196 -12.40419820218733 -8.691980368795472 8 11 23
5524 1846 3 -0.8476 -18.87280724246126 -12.124743081427745 -9.535562365233858 -6 30 20