LAMMPS data file via write_data, version 23 Jun 2022, timestep = 7500000

6030 atoms
4 atom types
4000 bonds
1 bond types
2000 angles
1 angle types

-19.738321839055647 19.738321839055647 xlo xhi
-19.738321839055647 19.738321839055647 ylo yhi
-19.738321839055647 19.738321839055647 zlo zhi

Masses

1 22.99
2 35.423
3 15.999
4 1.008

Bond Coeffs # harmonic

1 517.63 1

Angle Coeffs # harmonic

1 37.9505 109.47

Atoms # full

957 339 4 0.4238 -17.306724119296618 -16.874349648023614 -16.992956740230603 -3 0 0
955 339 3 -0.8476 -17.26022648321283 -15.881123482163085 -16.886468347931654 -62 0 0
956 339 4 0.4238 -16.368740603658416 -15.627522141329637 -16.511049496869198 34 0 0
3103 1055 3 -0.8476 -15.04752573169973 -14.648205528950715 -15.488522287228403 88 0 16
3979 1347 3 -0.8476 -15.378303190895117 -18.57113100340057 -14.902303143538209 -18 -12 18
4921 1661 3 -0.8476 -16.959171512791446 -18.61845242813527 -17.111422830220366 -30 9 -357
4922 1661 4 0.4238 -17.12456317477255 -18.484283879391786 -18.088481897105183 -13 -11 -158
3981 1347 4 0.4238 -15.912801123872315 -18.76486986694286 -15.724967858745238 -103 -108 62
4923 1661 4 0.4238 -17.768303575322623 -19.027437477103046 -16.689479047728657 -182 -8 -59
1443 501 4 0.4238 -19.07201000358899 -15.953615301039253 -16.143364333427847 183 28 -81
2362 808 3 -0.8476 -17.20031952702128 -17.551861908101426 -19.56855705998778 -2 0 -36
3541 1201 3 -0.8476 -19.430762101176924 -15.897741164014644 -19.327618880157765 19 -111 53
3543 1201 4 0.4238 -19.471424284782557 -15.10537891136125 -18.718924626936094 65 28 64
2897 986 4 0.4238 -14.737276169546908 -15.680965629888027 -19.104855985814417 -307 50 -13
3104 1055 4 0.4238 -14.319213039566174 -15.222366975870779 -15.862554345133871 -190 0 -87
1334 465 4 0.4238 -17.576452892863895 -14.283313799367596 -16.559599185999236 200 -136 7
2363 808 4 0.4238 -17.99348898621471 -16.95282720706459 -19.458826601777336 56 0 -87
2364 808 4 0.4238 -16.363914392510146 -17.033373396177417 -19.390801325387095 -49 0 24
3980 1347 4 0.4238 -15.996987384517846 -18.3918430385812 -14.137394186569175 -6 90 214
2321 794 4 0.4238 -13.73629502669828 -17.718771906329 -15.853262468159734 -148 -25 -37
2320 794 3 -0.8476 -13.067100667917154 -17.198181099936768 -16.38351199048217 37 -9 -14
2322 794 4 0.4238 -12.23785017143268 -17.744391818678825 -16.50182501699603 -30 -24 -47
5111 1724 4 0.4238 -10.347182390031204 -18.10481097318606 -16.455825808119208 270 59 17
574 212 3 -0.8476 -10.707257632594356 -15.370402009119882 -18.417435468879727 0 57 48
575 212 4 0.4238 -11.479936521496077 -15.937537781612315 -18.702609753138756 0 43 -24
576 212 4 0.4238 -10.514765318841315 -15.531664962066255 -17.44947835349565 0 22 -12
1957 673 3 -0.8476 -10.407108015213378 -15.054177386839385 -15.49850751759719 0 -32 16
5110 1724 3 -0.8476 -10.902256219142313 -18.831660253897258 -16.860280023167356 11 -7 -5
947 336 4 0.4238 -9.39027099656586 -16.509946134020648 -15.507460373433121 -173 90 62
1958 673 4 0.4238 -11.181909618888271 -14.786231909082089 -14.925892716405652 0 -64 -154
1794 618 4 0.4238 -11.962580559444195 -18.159836122904185 -18.704577926268517 201 -178 -2
1792 618 3 -0.8476 -12.07577514535363 -17.418663386085726 -19.366280395422883 81 3 -2
2933 998 4 0.4238 -9.086159276193518 -15.662054168710569 -19.0967527675863 116 -103 -210
946 336 3 -0.8476 -8.79146144476596 -17.246233197854757 -15.82259289977718 79 42 -56
5112 1724 4 0.4238 -10.32038884883454 -19.4252008422217 -17.416283616753596 -67 -81 -163
1959 673 4 0.4238 -10.120300900471216 -14.275686093755372 -16.056802261755337 0 78 -147
2898 986 4 0.4238 -13.770690094361607 -16.841599388014558 -19.725554896709827 100 85 19
3522 1194 4 0.4238 -12.780565927962506 -19.737666026805982 -17.02992053378388 106 25 47
2932 998 3 -0.8476 -8.25833782857531 -16.060025397030117 -19.492139385924755 9 -99 44
948 336 4 0.4238 -7.959398255062104 -16.85425287316325 -16.215049642571945 205 -32 -76
163 75 3 -0.8476 -6.554064870410957 -16.462914998180857 -17.15750324729776 0 -48 0
165 75 4 0.4238 -6.964402224286684 -16.11570463949813 -18.000752235928886 0 139 7
164 75 4 0.4238 -5.978648116685516 -15.75368420715187 -16.75020945697441 3 -3 0
5685 1915 4 0.4238 -5.918118583204601 -18.2119663913069 -16.934812945014087 73 37 40
5683 1915 3 -0.8476 -5.23559947367793 -18.93180147115639 -16.808301421300865 108 3 -110
404 155 4 0.4238 -3.9434619207517922 -18.13993697726427 -15.908158711428744 0 28 37
403 155 3 -0.8476 -3.209709299525767 -17.763184209843473 -15.342769943881947 0 62 43
5272 1778 3 -0.8476 -4.916298097742287 -14.293849294800035 -16.690683043555094 12 -13 -26
5273 1778 4 0.4238 -4.044850522557717 -14.763925613398182 -16.55065659751933 -23 40 42
708 256 4 0.4238 -3.178273762729016 -17.181319354603353 -19.228889130845133 0 -44 -191
5684 1915 4 0.4238 -4.904588373869258 -19.237867984763955 -17.70091276650947 83 -34 -28
2692 918 3 -0.8476 -4.755896153656905 -19.320739455467486 -19.331593009418928 0 120 -73
3780 1280 4 0.4238 -7.790940965909341 -18.580995691038208 -14.68777913000431 0 -21 1
405 155 4 0.4238 -3.037094050917507 -16.814900491844526 -15.609156862267657 0 -21 -25
4399 1487 3 -0.8476 -2.4131035600683552 -15.530761615150896 -16.470824239548815 0 198 -105
4401 1487 4 0.4238 -2.41819573598021 -15.816820263396693 -17.429022833544714 0 132 -6
706 256 3 -0.8476 -2.3480945034017866 -16.64937909300721 -19.062029145314042 0 40 89
4400 1487 4 0.4238 -1.5626775173263845 -15.043266818158413 -16.27302536489403 0 -75 58
1801 621 3 -0.8476 0.7874541332171676 -17.696247634681967 -15.994145562066844 0 149 -100
1803 621 4 0.4238 0.17732299372098495 -18.288503777525886 -15.467863625675738 0 -169 -166
1802 621 4 0.4238 0.35910855155059956 -17.469440624621946 -16.868833311639822 0 -381 292
707 256 4 0.4238 -1.555410994566478 -17.259007212135298 -19.064851724506298 0 -30 -19
3091 1051 3 -0.8476 2.2364471963823127 -15.11554432627356 -16.932857250544558 0 33 0
3092 1051 4 0.4238 2.050547743172713 -16.037920009468433 -16.594235774793827 0 -5 -4
5050 1704 3 -0.8476 -0.11230531807479473 -18.166313093397434 -18.554056678547983 0 1 -100
5052 1704 4 0.4238 0.7349035487618572 -18.09274922572949 -19.08019964298346 0 118 -24
5051 1704 4 0.4238 -0.29904363135165135 -19.128505258458105 -18.355775909428573 0 -172 8
253 105 3 -0.8476 -1.0491551776687131 -19.341471905179894 -14.809389922295507 0 -260 1
2903 988 4 0.4238 2.3671680606041217 -18.405814557565616 -16.5908091417019 0 -54 332
255 105 4 0.4238 -1.9395128463901123 -18.88626244174826 -14.802371171907689 0 -161 11
5829 1963 4 0.4238 1.9231360701265627 -14.471578931565986 -18.821065920578608 0 -38 10
2043 701 4 0.4238 0.6306457086832316 -14.267046604853997 -16.721060691432047 -1 14 -105
3093 1051 4 0.4238 3.1790087420610824 -14.863622016552227 -16.713510677030083 0 12 -23
2904 988 4 0.4238 3.844268701406404 -18.080597559838818 -15.97515169077409 0 93 42
2902 988 3 -0.8476 3.3265417615957475 -18.68766235430637 -16.57800423882818 0 29 125
2027 696 4 0.4238 5.280632054320566 -14.968524536789918 -16.865489104000314 -45 27 26
1330 464 3 -0.8476 6.354363565164657 -16.004104516948566 -17.647517442552346 0 -2 -31
1332 464 4 0.4238 5.925265683446391 -16.18038538453354 -18.533406874474004 0 -42 -109
1331 464 4 0.4238 6.930481741523326 -16.7816801462446 -17.395596790301138 0 -63 39
4008 1356 4 0.4238 4.301262950022425 -15.755524613459169 -15.143362113646964 0 8 35
2606 889 4 0.4238 7.9762059478460925 -18.44303326083433 -16.88839250594107 0 113 -128
4006 1356 3 -0.8476 4.156193929973082 -16.676808892112263 -14.782542188763218 0 5 7
2026 696 3 -0.8476 4.586568316078983 -14.394302098867533 -16.43127237184313 22 -21 -24
5901 1987 4 0.4238 7.238643604635369 -14.466642424035227 -17.591074157929718 179 -177 -1
2605 889 3 -0.8476 8.359828778518862 -17.521805524184806 -16.8237864925658 0 59 23
1059 373 4 0.4238 6.5719878426953064 -19.41544997657169 -18.67515746471746 22 77 -46
1057 373 3 -0.8476 6.801361434103788 -19.55486828692224 -17.711855696921603 -78 -35 -37
4007 1356 4 0.4238 4.949607514006759 -16.950627164382688 -14.238925133603786 0 -76 58
2607 889 4 0.4238 8.713750199963137 -17.372119212667645 -15.900567057531678 0 67 -23
406 156 3 -0.8476 11.857752872901713 -19.00860158067041 -17.005178939082388 0 -54 24
311 124 4 0.4238 9.143689969653057 -16.260419974447316 -18.034194641289286 506 0 166
408 156 4 0.4238 12.692527648077686 -18.812830618417966 -16.490567598376465 0 -49 21
407 156 4 0.4238 11.096097522849346 -19.134365021889398 -16.369518075710936 0 -101 98
310 124 3 -0.8476 9.760495894646409 -15.756824454300732 -18.639126649445412 57 -5 -16
4697 1586 4 0.4238 9.963604040276202 -14.656962620865617 -15.30110496747561 0 0 37
5644 1902 3 -0.8476 12.881865922141467 -17.1583593966143 -18.957262387225605 0 0 -55
4655 1572 4 0.4238 11.10372678787893 -19.049313808218812 -18.695206210969836 -64 -17 1
3325 1129 3 -0.8476 14.071083331762171 -17.382241785760332 -16.121585023087174 0 -31 -30
3326 1129 4 0.4238 13.471899524103675 -16.80061538954755 -15.571412753380645 0 198 116
4698 1586 4 0.4238 10.348883676694804 -14.899087886258783 -16.86940396698876 0 0 108
5645 1902 4 0.4238 12.641970710572963 -17.543663684624608 -18.06620038017031 0 0 -41
2467 843 3 -0.8476 10.756707357478744 -19.225514840074073 -14.551118980831253 0 14 -80
1851 637 4 0.4238 11.291944770605722 -14.406655630761737 -19.38754521240104 0 0 -66
312 124 4 0.4238 9.945843700877735 -16.303146684143645 -19.455936750349316 -214 41 -138
4654 1572 3 -0.8476 10.422547846332845 -19.17474312337961 -19.416499447330025 16 -35 -9
4696 1586 3 -0.8476 10.147385725013063 -14.207825443124106 -16.17546201457335 0 0 38
4954 1672 3 -0.8476 13.037968399769497 -15.535165144477874 -14.473807787373795 -23 26 -32
4956 1672 4 0.4238 13.097811587728549 -14.669400234802357 -14.970667911266672 -393 -14 -34
5646 1902 4 0.4238 12.109372895616524 -17.2614266192078 -19.583865958079457 0 0 -177
4454 1505 4 0.4238 13.796282284528399 -18.490655707547386 -19.491455300824196 11 -24 231
4656 1572 4 0.4238 9.596491949831048 -19.582614773346574 -19.0275615644434 81 -217 -107
5597 1886 4 0.4238 15.048600502573265 -18.634457749794276 -14.705753424312327 7 -7 0
5027 1696 4 0.4238 19.446952838375026 -19.03324529941065 -15.788328529184557 58 141 0
3327 1129 4 0.4238 15.015444763444613 -17.06517319289029 -16.034126239608977 0 121 -83
1442 501 4 0.4238 19.305339360269244 -16.747938741519782 -17.052885654999738 -109 47 20
159 73 4 0.4238 19.161633370350206 -17.22012160532987 -18.635841298247016 46 41 18
1441 501 3 -0.8476 19.42816654136813 -16.105651045727058 -16.296327049575446 -81 42 -65
2570 877 4 0.4238 15.98661640533526 -17.321111828856658 -18.253474293524448 8 -32 -61
2569 877 3 -0.8476 16.290979743712104 -17.988563561218935 -18.933085321822833 -16 -26 19
4554 1538 4 0.4238 16.944837374855247 -15.697639001478707 -16.23234937591758 42 53 -144
4552 1538 3 -0.8476 16.545576931654935 -16.61258026896581 -16.291297654013512 1 20 28
4553 1538 4 0.4238 17.15762232234007 -17.272080596819023 -15.854879595951274 -29 63 57
158 73 4 0.4238 17.791300668992122 -18.026827922716777 -18.264304333926745 270 79 -31
157 73 3 -0.8476 18.780420248367513 -17.988785025555163 -18.122194409719256 -9 32 -23
2237 766 4 0.4238 18.976007265493003 -15.098384045066418 -14.821237133712726 -17 -23 255
2571 877 4 0.4238 15.55581416950447 -18.642925798502375 -19.110121111126556 -12 78 -59
550 204 3 -0.8476 18.161997203261635 -18.026687025983588 -14.3323602182428 59 13 1
4916 1659 4 0.4238 17.041374073453678 -14.712004056387624 -19.501084131516148 -49 -140 -84
4917 1659 4 0.4238 15.452187737918923 -14.383961664996017 -19.318050047584293 -111 -45 -47
4915 1659 3 -0.8476 16.379553611950584 -14.064616696326674 -19.123085060669215 11 5 25
4357 1473 3 -0.8476 -14.41345286201404 -14.037637662897666 -18.334339801974004 0 0 -64
3105 1055 4 0.4238 -14.915961374919238 -13.704033746339006 -15.790567082719376 -73 0 -27
1335 465 4 0.4238 -17.438944842799156 -13.073873883170593 -15.471034467995015 -73 231 45
1333 465 3 -0.8476 -17.83290442823673 -13.339550709437997 -16.350927484032667 -50 32 41
4435 1499 3 -0.8476 -18.534122538310957 -10.697026959671897 -16.00407718981417 -22 20 -100
4436 1499 4 0.4238 -17.999537389009454 -10.581524962681149 -15.16689261085504 -61 102 -185
2695 919 3 -0.8476 -15.674629747855816 -9.267244782026745 -16.930210210239082 0 0 -21
4437 1499 4 0.4238 -18.538526788610238 -11.662034133545893 -16.266263729388818 91 26 -338
2697 919 4 0.4238 -16.27416095917912 -10.015526925122698 -16.64624510938228 43 0 4
2289 783 4 0.4238 -18.538324622567078 -9.291617937383245 -17.161495004874723 35 26 -19
3683 1248 4 0.4238 -18.877363172311977 -13.401120587873269 -17.588231859250488 -22 -11 -29
4104 1388 4 0.4238 -15.905784381809166 -12.614959264134985 -19.411994443144117 -316 -1 138
3682 1248 3 -0.8476 -19.63495484849635 -13.546922827960161 -18.224468150048057 -26 -55 -46
2288 783 4 0.4238 -19.58289681458747 -8.68975814956992 -18.262975932334168 23 68 -31
2287 783 3 -0.8476 -18.66745667008282 -8.598786628295892 -17.87093824624252 10 -108 32
2696 919 4 0.4238 -15.349228389007804 -8.77592777106703 -16.122298280698008 -37 0 34
3551 1204 4 0.4238 -16.028994028244515 -11.998332149957383 -14.114224101393328 -3 0 0
372 144 4 0.4238 -18.975859352177054 -13.304950489142245 19.72660238214253 46 11 -65
4359 1473 4 0.4238 -13.985896203898815 -13.998870810021192 -19.237497218354104 0 0 101
4358 1473 4 0.4238 -13.902123375267184 -13.45959184807403 -17.69841058107594 0 0 -8
4461 1507 4 0.4238 -13.780810446774966 -9.940825096810583 -17.55861254948711 55 0 0
4283 1448 4 0.4238 -13.721401246120877 -11.905685935952704 -15.376551678057107 27 -127 220
4282 1448 3 -0.8476 -13.445321188560689 -12.311610259137247 -16.247760768911636 9 -1 -4
4284 1448 4 0.4238 -12.969056415357779 -11.626324562734188 -16.798719382552655 353 56 78
4460 1507 4 0.4238 -13.046698486559302 -10.195722651115767 -18.994834456051727 -92 0 0
4459 1507 3 -0.8476 -12.902624660245996 -10.099064022222027 -18.00999950836676 -24 0 0
3904 1322 3 -0.8476 -10.191804869052435 -11.13787843907971 -19.03498597098465 0 0 -138
3273 1111 4 0.4238 -10.259056945290473 -12.022342357319754 -16.040474083325897 0 21 -30
3906 1322 4 0.4238 -9.93836015374918 -11.841093761622412 -18.370716110823523 0 37 61
5618 1893 4 0.4238 -10.8098774875374 -10.062210260374503 -15.88469296354227 0 1 0
5617 1893 3 -0.8476 -10.97847548331428 -10.512919009961891 -15.008087944498183 0 1 0
3905 1322 4 0.4238 -11.175020914027613 -11.184798230952778 -19.211295036026506 0 93 199
3271 1111 3 -0.8476 -9.714433798144352 -12.663716327092883 -16.580868227063128 0 -34 -43
5619 1893 4 0.4238 -11.508453292590554 -9.904760017087956 -14.417100456571443 0 1 0
3645 1235 4 0.4238 -11.629814957503957 -8.93912063417337 -17.96727301403861 8 0 -120
3272 1111 4 0.4238 -8.750070802848269 -12.403132400322534 -16.535031695442534 0 -47 -6
3644 1235 4 0.4238 -10.03031472117957 -8.653513724646972 -18.13053726411754 -5 0 198
5943 2001 4 0.4238 -8.726067176191087 -10.111371552192931 -18.791425372596443 0 0 -46
5274 1778 4 0.4238 -4.885353965092559 -13.78340662295564 -17.55003789199456 -22 91 83
5941 2001 3 -0.8476 -8.211996307929054 -9.268974042424059 -18.629877845610807 0 0 -20
3160 1074 3 -0.8476 -4.74160916553408 -10.489948210254006 -16.485021022799447 0 -1 -20
3161 1074 4 0.4238 -4.786416740694356 -10.04385040291132 -17.37888289586927 0 210 -39
1727 596 4 0.4238 -6.199041411749131 -13.037012201250597 -16.550759054108333 0 -38 0
1726 596 3 -0.8476 -6.940057865823053 -12.438148831746867 -16.247018833562294 0 -3 0
3162 1074 4 0.4238 -4.003964357748228 -11.165136370293055 -16.486071301178733 0 8 180
1728 596 4 0.4238 -6.721971036367408 -11.491460083762421 -16.48412462475983 0 -20 0
4163 1408 4 0.4238 -5.829533867255604 -9.553538020178804 -15.394256910606803 1 0 0
5962 2008 3 -0.8476 -5.0012835333054335 -12.646913110692513 -19.426731969636247 56 0 -91
5140 1734 3 -0.8476 -4.613512692955823 -9.870671448129594 -19.19037897514488 0 0 18
5963 2008 4 0.4238 -4.898545643239902 -11.652333795198585 -19.442780717033813 -58 0 -221
4162 1408 3 -0.8476 -5.91633757802561 -8.679695086936979 -14.91585933735887 1 0 0
1701 587 4 0.4238 -7.237685492334068 -13.178449179194823 -14.702389933549373 0 50 162
5942 2001 4 0.4238 -7.422373163397135 -9.237651506495226 -19.242669985145476 0 0 -43
5141 1734 4 0.4238 -3.7228079159628256 -9.86220809423672 -19.644882819479985 0 0 46
2041 701 3 -0.8476 -0.13518639292009663 -13.871517059779505 -16.214052216006053 -1 -148 82
2042 701 4 0.4238 0.1955765192645004 -13.500884500723986 -15.346165446402816 -1 42 34
3579 1213 4 0.4238 -1.6824482710906619 -10.64163322294257 -16.531735623746346 0 0 -51
3577 1213 3 -0.8476 -2.023314741046372 -11.504409542112143 -16.905136665339807 0 0 -56
3578 1213 4 0.4238 -1.411031749412477 -12.24841542524116 -16.63762009460735 0 0 191
4876 1646 3 -0.8476 1.4235248372846092 -8.986452250694493 -15.62846176306022 117 0 34
4543 1535 3 -0.8476 2.4460733243259387 -11.522200744778567 -16.270481185413338 0 27 0
4877 1646 4 0.4238 1.8204703233787267 -9.90314166639601 -15.674449005553972 155 0 -35
2134 732 3 -0.8476 -1.1557800548269639 -8.918951959416827 -18.94069777433048 0 0 -85
4167 1409 4 0.4238 -0.12354165684059314 -9.198100928994748 -16.00543733167215 0 0 44
4165 1409 3 -0.8476 -1.0881837333974618 -9.118807997322751 -16.256790424463873 0 0 -13
2135 732 4 0.4238 -1.484195744295309 -9.596326586202762 -18.282437256225293 0 0 -172
5267 1776 4 0.4238 -1.6352475344334272 -9.925529700732568 -14.354243136196823 -9 0 -23
2136 732 4 0.4238 -0.161068073733364 -8.842505780885014 -18.87211022504845 0 0 -73
4545 1535 4 0.4238 2.7130008781321524 -12.015293895020726 -15.442466011782024 0 -22 0
4544 1535 4 0.4238 2.789823546420388 -12.008816035605937 -17.07362602098729 0 -4 0
2028 696 4 0.4238 4.3274002217299525 -13.656122586006402 -17.054106975097874 -44 42 -4
1687 583 3 -0.8476 4.109632063753845 -12.707096848864945 -18.450689275568035 0 -19 22
1689 583 4 0.4238 4.95623037990318 -12.403815180799615 -18.013320382420066 0 -46 -4
5362 1808 3 -0.8476 6.147166007106197 -11.491515609201254 -16.99419513381286 0 0 0
5364 1808 4 0.4238 5.931149378115511 -11.404523650059657 -16.021688450063902 0 0 0
5363 1808 4 0.4238 6.78799296092868 -12.247634809479097 -17.12695274364528 0 0 0
1669 577 3 -0.8476 6.624679480721836 -9.403768237126531 -18.56224226801871 0 -19 -184
5899 1987 3 -0.8476 7.750136263609299 -13.631466619093377 -17.7932044471225 -75 56 2
1670 577 4 0.4238 6.711143670306522 -10.133968635471849 -17.884501572120055 0 21 -183
1671 577 4 0.4238 7.410121689484139 -8.788861137503025 -18.491743251589014 0 51 -43
2062 708 3 -0.8476 5.9835140390391235 -11.292244324432982 -14.329228723728226 1 0 58
1688 583 4 0.4238 4.144205241164659 -12.49439084010297 -19.427193686964863 0 3 0
5655 1905 4 0.4238 4.007240512693637 -13.470417176893497 -14.308068492087436 0 0 0
4763 1608 4 0.4238 8.24348497697752 -12.772632627387752 -19.210503390723066 0 116 100
5900 1987 4 0.4238 8.663490708317635 -13.694386301326954 -17.390929933070087 -82 -16 54
2378 813 4 0.4238 9.790633045182544 -8.998599307309082 -18.54683019263612 0 -35 0
2102 721 4 0.4238 11.078089365856528 -12.665089080723217 -16.181245836241892 0 0 29
2103 721 4 0.4238 12.443979075947961 -11.785946432782547 -16.34881674767355 0 0 -60
2101 721 3 -0.8476 11.67141878611764 -11.987490265867269 -15.746711526197508 0 0 -41
2056 706 3 -0.8476 13.1240819262433 -8.66431535494152 -17.40619701852904 16 -199 -8
1731 597 4 0.4238 10.810183225795642 -10.774821530095823 -14.967328746047135 0 -249 4
1730 597 4 0.4238 10.513800221995599 -9.17360081280712 -14.845362178687722 0 -17 -31
1729 597 3 -0.8476 10.332988808439975 -10.070496122385235 -14.441770697355562 0 -283 6
1849 637 3 -0.8476 11.481773566735724 -13.429393307870209 -19.29307821648166 0 0 74
2377 813 3 -0.8476 9.336133100438715 -8.769261773541182 -17.686112860607064 0 41 0
1214 425 4 0.4238 13.803034150277423 -10.27155775044633 -17.429298454720577 8 0 -55
1850 637 4 0.4238 10.654953620561392 -12.907454626187002 -19.502719704619736 0 0 78
2379 813 4 0.4238 10.014896535722462 -8.720793867060316 -16.95335698854656 0 3 0
1213 425 3 -0.8476 13.953770008232437 -11.258863253649965 -17.379232605502878 4 0 13
2985 1015 4 0.4238 13.051952291850178 -12.729981460121195 -19.669146519468207 -95 103 381
1215 425 4 0.4238 14.005356151604488 -11.635488969658898 -18.304160697213373 -21 0 -69
81 47 4 0.4238 18.1444922308599 -13.997952241560323 -16.283699990564866 -21 -18 -122
80 47 4 0.4238 16.948521176670297 -14.041747673310041 -17.394718644014485 58 -1 75
79 47 3 -0.8476 17.15356197510999 -14.020348793588683 -16.41619848294035 -84 -12 69
3684 1248 4 0.4238 19.122477118238187 -12.875490649088558 -18.045824953920633 1 -425 42
54 38 4 0.4238 19.08238893115798 -10.002801805924141 -15.3146619071426 21 5 -113
5342 1801 4 0.4238 14.909526535364176 -11.63477824902118 -16.103374932444066 72 0 78
5343 1801 4 0.4238 15.862960813849886 -12.78053765497882 -15.436422934164595 36 0 -87
5341 1801 3 -0.8476 15.577326834423523 -11.82366680632637 -15.383399983539404 -8 0 13
5493 1851 4 0.4238 18.09940468348281 -10.7434715442812 -18.269087765616092 226 0 -427
5491 1851 3 -0.8476 18.087085167293143 -11.577662590025819 -17.71774941732915 15 0 26
5160 1740 4 0.4238 15.820399985524704 -10.26875424179524 -14.774354148466617 14 -52 1
5492 1851 4 0.4238 17.217457936133304 -11.640754690986101 -17.228088360496166 134 0 -5
52 38 3 -0.8476 18.71917159961515 -9.890925582396621 -14.389698662726477 -132 -8 -66
5158 1740 3 -0.8476 16.087095817518314 -9.41243287641496 -14.33210184092187 8 -45 0
5773 1945 3 -0.8476 18.60417628357491 -9.099185266904113 -19.357385824302856 0 0 48
53 38 4 0.4238 17.752546144136772 -9.63958145509218 -14.439323756241137 111 -39 192
5774 1945 4 0.4238 17.701332942755283 -8.67216058319766 -19.30714779380437 0 0 38
4521 1527 4 0.4238 -15.625652860499947 -7.752349931559075 -14.49440981309053 -213 0 -60
5780 1947 4 0.4238 -15.932183116332808 -7.3786626165214075 -17.907555089974846 63 0 -16
5781 1947 4 0.4238 -17.553407460442784 -7.302239477643772 -18.087604047495415 173 0 -25
5779 1947 3 -0.8476 -16.687825328797405 -6.839951762037177 -18.28010774512565 59 0 8
1260 440 4 0.4238 -17.145965591130565 -5.244250432659199 -18.315148096373083 -57 0 1
1258 440 3 -0.8476 -17.167807398857516 -4.247822319053116 -18.39672021822162 -26 0 1
1259 440 4 0.4238 -17.531888126494334 -3.8522670252537883 -17.553523175532693 -21 0 22
4674 1578 4 0.4238 -18.526828674320406 -4.670377742567312 -15.072270272370886 -384 -54 270
4672 1578 3 -0.8476 -18.37727587905357 -5.5816266924443125 -14.688526442651899 40 89 36
5293 1785 3 -0.8476 -14.459452870142076 -3.9911710437402337 -18.750773790525056 0 -45 22
5295 1785 4 0.4238 -15.443994646607969 -4.098475644241359 -18.612337728553353 0 40 35
5065 1709 3 -0.8476 -18.37101315962817 -3.0712603174132966 -16.052653629675536 106 0 37
4999 1687 3 -0.8476 -14.263101218463708 -3.6917875112600123 -15.90295097720405 -65 25 -9
4200 1420 4 0.4238 -19.410424737341646 -6.196893701159649 -15.938566881279494 281 0 77
5000 1687 4 0.4238 -14.794079050504587 -4.348069691157709 -15.366894532149777 -4 66 -46
5067 1709 4 0.4238 -19.355628278099786 -3.013591956231092 -16.21760270225246 259 0 -72
4520 1527 4 0.4238 -17.22765419977695 -7.548867905679698 -14.25189492920311 5 0 -104
5294 1785 4 0.4238 -14.226751032457388 -3.0186229154149347 -18.749683177765373 0 4 -7
4597 1553 3 -0.8476 -14.11846634808771 -7.37871212850584 -15.43896603294931 -4 0 0
4622 1561 4 0.4238 -13.946360451555778 -5.340758574360326 -18.001274966096997 -131 0 7
4599 1553 4 0.4238 -13.867216062797327 -7.046624677226514 -16.348136692877674 -132 0 0
3643 1235 3 -0.8476 -10.88480213572947 -8.312449296565196 -17.73871188473903 8 0 108
4598 1553 4 0.4238 -13.362960834989693 -7.911942181704996 -15.058338720564148 -2 0 0
4623 1561 4 0.4238 -12.586354805552748 -6.239184875549191 -18.100478457883472 6 0 16
4621 1561 3 -0.8476 -13.504745507011153 -6.188690674712533 -17.708038831584094 42 0 0
1187 416 4 0.4238 -12.415922743094864 -3.8843935343212235 -16.622790596380682 0 -71 0
1188 416 4 0.4238 -11.494551619189275 -3.762998636636836 -17.965536108829884 0 -35 0
1186 416 3 -0.8476 -11.548405468652385 -3.5490659468592707 -16.990173278015924 0 -17 0
5739 1933 4 0.4238 -10.148692150503537 -6.93335751555349 -17.214628747825483 0 0 1
5737 1933 3 -0.8476 -9.483972427855017 -6.232243545126886 -16.95658426493614 0 0 1
1133 398 4 0.4238 -9.503007972968383 -5.1465867415767494 -18.39870543657688 0 0 34
1132 398 3 -0.8476 -9.624006460191895 -4.649515701312014 -19.257937523414878 0 0 50
1134 398 4 0.4238 -9.115102918222302 -3.7895279106719695 -19.220013844246523 0 0 -72
3869 1310 4 0.4238 -9.076036515455996 -4.186584059003172 -15.942463122975228 0 0 -18
3030 1030 4 0.4238 -10.039676129716767 -5.948731493085661 -14.486223559635135 0 -14 321
5738 1933 4 0.4238 -8.656114060705756 -6.670557196218332 -16.606538993231197 0 0 1
3870 1310 4 0.4238 -8.356466080588607 -3.3605156933005373 -14.731489845350309 0 0 56
3868 1310 3 -0.8476 -8.198011429789966 -3.9107164844589644 -15.55135044212561 0 0 10
4164 1408 4 0.4238 -6.361319690081739 -8.014320090066601 -15.515249149842539 1 0 0
3300 1120 4 0.4238 -7.25849504779576 -7.780279779058756 -17.655615505733074 0 -29 -34
3299 1120 4 0.4238 -6.210411237531358 -6.567979636416674 -17.341806411161272 0 -17 98
3298 1120 3 -0.8476 -6.922888942061128 -7.152374900088719 -16.953401611136474 0 10 42
5725 1929 3 -0.8476 -4.733663351676549 -5.494184366860284 -17.808808900090835 0 0 12
4390 1484 3 -0.8476 -5.662342384211205 -3.478689108250267 -16.055372166031827 0 1 37
5726 1929 4 0.4238 -4.818657706950889 -4.822313551014885 -18.544585239046008 0 0 -62
5727 1929 4 0.4238 -4.123806496999279 -6.231462455108836 -18.099491859081194 0 0 129
4391 1484 4 0.4238 -5.5024100156432665 -4.204947250453015 -16.72393089992326 0 1 -10
4392 1484 4 0.4238 -6.638493356509532 -3.4293134004639456 -15.843968812194902 0 1 -277
2045 702 4 0.4238 -4.246188511641445 -4.024000930794542 -15.453078917246568 52 -1 0
2044 702 3 -0.8476 -3.333453723167431 -4.218664697555732 -15.093883632833576 7 -1 0
2046 702 4 0.4238 -2.782274717069754 -4.6568186521127775 -15.803970128947016 -30 -1 0
4878 1646 4 0.4238 2.1254821109054793 -8.30801188205896 -15.845198173093523 -70 0 63
4166 1409 4 0.4238 -1.215657083786445 -8.317084663040491 -16.840734137094934 0 0 86
2599 887 3 -0.8476 -2.5929274209447137 -6.780373212462756 -19.136546031964176 43 0 -67
2601 887 4 0.4238 -1.864282475648851 -7.465166348740217 -19.148162867909694 137 0 87
4804 1622 3 -0.8476 0.5378884580775393 -5.39664466659757 -14.487028091915631 0 49 -34
528 196 4 0.4238 -2.045683868678713 -5.561650667234106 -17.95150698949126 0 0 23
526 196 3 -0.8476 -1.6782633208911126 -4.970858720652369 -17.233197644880327 0 0 13
527 196 4 0.4238 -0.6793293443817662 -4.971812123670888 -17.27935163230384 0 0 -151
1044 368 4 0.4238 0.5354567252301042 -3.839856517666434 -15.201253888733495 0 0 -124
4806 1622 4 0.4238 1.1716468818552257 -6.16788305701 -14.42751522930516 0 -156 -34
1042 368 3 -0.8476 0.3780197960539032 -2.964444077558971 -15.658274731142914 0 0 18
1043 368 4 0.4238 0.16104190221733203 -3.125369974821246 -16.621095344558434 0 0 -100
1088 383 4 0.4238 -1.93831250326032 -2.9620494829022714 -17.401904504577953 0 0 -4
3297 1119 4 0.4238 -2.3103591117185 -3.366030437806828 -14.170589167087938 0 -1 -8
521 194 4 0.4238 3.532867674892596 -7.375772765594103 -14.551207406809388 0 0 9
1103 388 4 0.4238 3.13659000109644 -4.587571287444845 -18.39819921757582 -1 0 26
1102 388 3 -0.8476 3.676715715345712 -5.288973298199217 -17.933118442005572 -1 0 15
5192 1751 4 0.4238 4.0126870073172425 -6.681070548173637 -16.740870094209917 0 0 37
5191 1751 3 -0.8476 3.9585916297079464 -7.5814451215629015 -16.309128961576317 0 0 -148
5193 1751 4 0.4238 4.757787388747544 -8.123850496479491 -16.56813285459609 0 0 194
179 80 4 0.4238 7.263557464647004 -5.854676511926123 -17.045650786738758 -105 0 0
5347 1803 3 -0.8476 5.162374759368764 -3.6399725362397217 -16.153557382649222 0 0 0
180 80 4 0.4238 6.0237138180913 -5.063874271240525 -16.335687179423964 -3 0 0
178 80 3 -0.8476 6.5043767197148235 -5.938405589236345 -16.400177398403404 56 0 0
2586 882 4 0.4238 7.206480268184217 -6.143137151209566 -14.773235745651377 -117 0 0
5348 1803 4 0.4238 4.62849235153244 -4.2979417082258635 -16.68463757252053 0 27 0
1104 388 4 0.4238 4.346342685696209 -5.670888811898829 -18.570097062766262 -1 0 -32
3774 1278 4 0.4238 6.923402550956785 -3.1161907996314717 -15.491607273436829 -39 -51 0
3773 1278 4 0.4238 8.438214544477473 -3.0522147675619125 -14.885076859836005 159 0 0
3692 1251 4 0.4238 11.96011913338083 -8.453799259077856 -16.03947905985532 60 0 5
2058 706 4 0.4238 13.703888588716802 -8.023951811220792 -16.902452269382035 23 -4 -92
2057 706 4 0.4238 12.79426119272781 -8.227737935346891 -18.243226570710426 -6 245 -8
4498 1520 3 -0.8476 8.604766260685667 -6.000238439067149 -18.078513058867753 0 1 118
4499 1520 4 0.4238 9.348529939967534 -5.381753908810577 -17.824950102026946 0 1 -13
4500 1520 4 0.4238 8.952896277787984 -6.936203155754595 -18.131200129411397 0 1 207
3691 1251 3 -0.8476 11.28233469266999 -7.93023462684711 -15.523253020075215 5 0 0
3958 1340 3 -0.8476 10.540358051447726 -4.359889239288398 -17.35592197483639 0 1 23
3808 1290 3 -0.8476 9.687443772633712 -4.225168006250752 -14.528594459144754 -17 0 -73
3959 1340 4 0.4238 11.51072607871196 -4.3256549713774675 -17.595116307156953 6 -6 104
3960 1340 4 0.4238 10.443445454820155 -4.599382693309685 -16.389872885147962 4 -6 16
2323 795 3 -0.8476 13.175656630607149 -4.86098469424535 -17.897157005884857 -53 0 73
2325 795 4 0.4238 13.321429737606651 -5.570601457715353 -18.586500382904443 174 0 188
3693 1251 4 0.4238 11.74772635989018 -7.252825881559939 -14.953578878634184 98 0 5
4094 1385 4 0.4238 9.127238964986532 -3.195479459478483 -18.302700755595783 0 0 116
5562 1874 4 0.4238 13.734518222638773 -6.680978219881368 -14.298867882090285 99 0 0