LAMMPS data file via write_data, version 23 Jun 2022, timestep = 7500000

6036 atoms
4 atom types
4000 bonds
1 bond types
2000 angles
1 angle types

-19.702986905452136 19.702986905452136 xlo xhi
-19.702986905452136 19.702986905452136 ylo yhi
-19.702986905452136 19.702986905452136 zlo zhi

Masses

1 22.99
2 35.423
3 15.999
4 1.008

Bond Coeffs # harmonic

1 517.63 1

Angle Coeffs # harmonic

1 37.9505 109.47

Atoms # full

2416 830 3 -0.8476 -18.198568981703737 -17.87138836545245 -13.693445719472082 36 -35 5
4270 1448 3 -0.8476 -14.617220720055974 -15.510409975105018 -15.522529735629996 -39 51 0
4165 1413 3 -0.8476 -14.804828041784813 -16.40714909604257 -18.250913020676357 -20 0 -53
4271 1448 4 0.4238 -14.734749651546007 -15.960680789629167 -16.407653397382028 22 232 7
4167 1413 4 0.4238 -15.553453704386257 -16.041742578222728 -18.804120424586966 -7 1 10
5669 1914 4 0.4238 -18.33976564728156 -16.16513006710388 -19.379073887209007 -35 -14 54
2417 830 4 0.4238 -18.396809679598668 -17.599527049907348 -14.635142100816593 52 -11 35
4298 1457 4 0.4238 -14.499322645263684 -18.033690171393694 -17.560524053361153 0 -1 -72
4297 1457 3 -0.8476 -14.427606418660366 -19.030275385873928 -17.60144753004902 0 -9 -34
5668 1914 3 -0.8476 -19.02658519670976 -16.790041349495425 -19.007907057881855 1 -21 -100
1091 388 4 0.4238 -18.728420356917624 -17.084894369217686 -17.285040552382128 16 -131 26
1090 388 3 -0.8476 -18.890747041648467 -17.48709758164314 -16.38399522893377 -39 43 -12
2257 777 3 -0.8476 -17.114885043447213 -14.871644941845489 -19.4758310909815 -50 42 -8
3437 1170 4 0.4238 -17.323807167450553 -18.8138286201741 -16.440337712248375 -40 -108 -40
2418 830 4 0.4238 -18.460730254018813 -18.82717426640732 -13.560236070576934 -68 45 13
4272 1448 4 0.4238 -15.134905153027736 -16.00599720092547 -14.825108193697169 12 -128 -16
791 288 4 0.4238 -19.049680309815255 -14.40426144559285 -17.393908827115 -17 0 14
5473 1849 3 -0.8476 -15.387145040168186 -17.28815570453454 -13.52599858441687 -33 28 -6
2731 935 3 -0.8476 -18.254287541466255 -19.451082707309464 -19.418048063268518 -40 9 7
2733 935 4 0.4238 -18.683449275616802 -18.549477048092967 -19.363930161232854 179 -17 -20
3438 1170 4 0.4238 -15.943578905830302 -19.556116709960577 -16.899255538869728 -104 -58 69
5475 1849 4 0.4238 -16.380121585150953 -17.40471207035103 -13.505673888203159 54 -49 12
5474 1849 4 0.4238 -14.946179344649721 -18.13177609202023 -13.219641006183448 36 83 -16
3436 1170 3 -0.8476 -16.92536204285469 -19.67638877689557 -16.752157865018408 0 -18 5
2732 935 4 0.4238 -17.618679714355718 -19.564063125124957 -18.6543473429707 -36 3 10
4166 1413 4 0.4238 -13.963675982184489 -16.414675631434253 -18.791660258473648 -60 33 -56
4299 1457 4 0.4238 -13.900551372692911 -19.293623368855837 -18.409445612433398 0 42 -31
571 215 3 -0.8476 -11.241937161197741 -19.647084497575594 -15.902785916554201 1 0 41
573 215 4 0.4238 -10.908226446545072 -19.65949917911309 -14.960192117767152 1 0 -33
1901 658 4 0.4238 -10.924977061948322 -17.73701017634195 -16.80759321200201 0 14 3
1900 658 3 -0.8476 -11.153004924282438 -16.903821946540734 -17.31137969064826 0 19 54
1902 658 4 0.4238 -11.556959585755953 -17.14747130881888 -18.193114450176928 0 56 -16
5557 1877 3 -0.8476 -9.845195103781709 -15.981135534765304 -14.394595246083425 0 -2 0
3119 1064 4 0.4238 -9.144302144253139 -16.005897504482725 -17.75965116153577 0 26 -16
3118 1064 3 -0.8476 -8.712132131376764 -15.113459082162462 -17.63010283041517 0 12 -12
5558 1877 4 0.4238 -10.270764959361834 -15.543252243964485 -15.186522347714122 0 -4 0
3120 1064 4 0.4238 -9.34816210266538 -14.392163810007427 -17.90432727631753 0 43 2
1998 690 4 0.4238 -11.827517391350517 -15.482332212273386 -16.51710493348573 -32 23 -22
1750 608 3 -0.8476 -10.667511993789018 -18.716024431569654 -13.47621738743108 0 77 42
5559 1877 4 0.4238 -8.922499124997781 -16.28186300737856 -14.635831975096826 0 1 0
1997 690 4 0.4238 -13.134009494129081 -14.570268485907494 -16.15955124081252 -18 -11 -96
1751 608 4 0.4238 -10.503477901062166 -17.769241043174645 -13.753155192078747 0 -130 -23
1996 690 3 -0.8476 -12.135532684723238 -14.580611545559728 -16.213746306129913 7 -42 -4
833 302 4 0.4238 -9.48974500117894 -19.42002697512007 -16.265696386496398 0 25 14
1771 615 3 -0.8476 -12.355050033563618 -16.26644847310208 -19.525638394181076 3 -4 -2
832 302 3 -0.8476 -8.556574854910554 -19.226809916836903 -16.568782927932947 0 -3 -22
1650 574 4 0.4238 -11.008747848733885 -15.2538004030158 -13.319202205929582 0 59 0
572 215 4 0.4238 -12.241932423562202 -19.644038487544012 -15.90232577778127 1 15 130
617 230 4 0.4238 -8.527215452527964 -15.454574131557541 -13.209860938643782 -89 60 0
1772 615 4 0.4238 -12.691020543395991 -15.334904599550649 -19.6647421494252 -11 -98 45
3512 1195 4 0.4238 -7.674573657076135 -18.041298651804013 -15.503597163616012 0 94 -120
3513 1195 4 0.4238 -6.766829367971237 -16.686206846203266 -15.583302915775075 0 -205 137
3511 1195 3 -0.8476 -7.47038951493014 -17.16811710059708 -15.061033221965733 0 -46 -7
511 195 3 -0.8476 -4.31635050773473 -16.108493791551552 -16.165816973435607 -20 0 39
512 195 4 0.4238 -4.116763120621689 -17.0852461603206 -16.244047734409587 -24 0 44
4126 1400 3 -0.8476 -3.3013137229868668 -18.83429839102752 -16.86154886401054 0 -65 50
1667 580 4 0.4238 -7.087551175582986 -15.482787861073994 -18.162319927833824 0 0 -88
1666 580 3 -0.8476 -6.177469275943134 -15.892735953638253 -18.22310432213363 0 0 36
5291 1788 4 0.4238 -4.2143420957907765 -18.65312416395475 -18.297633957804706 0 29 71
3260 1111 4 0.4238 -6.266206714826786 -17.492621560406555 -13.450446015230035 0 -93 -43
513 195 4 0.4238 -3.468283166910003 -15.607862667544497 -15.99217772046161 4 0 -10
1668 580 4 0.4238 -5.561280097739497 -15.432643533970825 -17.583865592787987 0 0 75
4517 1530 4 0.4238 -5.226477557858243 -14.533479725762483 -15.311307339628973 0 10 0
5290 1788 3 -0.8476 -4.8087049374996385 -18.702069806913144 -19.100340112066796 0 4 23
5292 1788 4 0.4238 -5.315512514073121 -17.844959066042886 -19.192574955405213 0 -114 -41
4128 1400 4 0.4238 -3.7248894904484318 -19.25897248596609 -16.061401682371695 0 43 6
991 355 3 -0.8476 -3.0796927325200834 -17.967951754270626 -13.46905354551414 0 0 0
992 355 4 0.4238 -2.5352366444724916 -17.18644755045195 -13.77371617624841 0 0 0
993 355 4 0.4238 -2.493119758168615 -18.774522616257414 -13.39573397627482 0 0 0
4127 1400 4 0.4238 -2.386377658423547 -18.50980946188271 -16.621551079241137 0 46 -8
1419 497 4 0.4238 -1.6721611908162828 -15.53047455393738 -14.824846570801292 8 32 0
2791 955 3 -0.8476 -0.6282129790399014 -16.826490936776217 -16.001974766512443 0 7 -12
2905 993 3 -0.8476 1.5277916472848216 -17.936999748926098 -14.790236711472138 0 -48 0
2907 993 4 0.4238 1.7729326829475263 -18.095479705574206 -15.746683820833292 0 -61 0
2793 955 4 0.4238 0.092592226654313 -17.06969255770283 -15.352903240498806 0 -61 -33
2792 955 4 0.4238 -0.2216494675960846 -16.635383002995457 -16.895386343748825 0 100 -39
2032 702 3 -0.8476 0.45040441158467664 -15.969680681873287 -18.856367894500362 0 -20 57
2034 702 4 0.4238 1.2019901422630739 -15.684620750566841 -19.451229013872346 0 16 129
2033 702 4 0.4238 -0.23814143687081282 -15.245453969783238 -18.818947369542684 0 28 61
1417 497 3 -0.8476 -2.2545700477034685 -15.375411502482567 -14.026876568830652 5 -28 0
2906 993 4 0.4238 2.169991527545343 -17.286363622321794 -14.384956118885777 0 178 0
4528 1534 3 -0.8476 2.0023162111387287 -17.897614987307737 -17.577210714071644 -5 -9 -10
4529 1534 4 0.4238 1.2868992373890873 -17.362365599230856 -18.026307466508012 169 12 -80
300 124 4 0.4238 -0.16841819738599523 -18.81841167387734 -14.198914369092115 0 160 -47
461 178 4 0.4238 -2.0932784038770382 -19.48184429119687 -19.48294089333726 0 26 -69
1418 497 4 0.4238 -2.024277494448496 -14.495083807254876 -13.612160804304883 -8 -44 0
1455 509 4 0.4238 2.046105673298651 -19.621730733474845 -18.224577976584943 1 -62 6
298 124 3 -0.8476 -0.739184811615892 -19.631837672284977 -14.086826757421996 0 -92 14
4553 1542 4 0.4238 -0.9525476095288695 -17.39312057559859 -19.381779090776668 137 -99 100
4530 1534 4 0.4238 2.889246668645159 -17.673956394189 -17.981353972143268 40 -3 177
5520 1864 4 0.4238 3.1204155865238805 -14.37257742827981 -16.04392432087104 0 27 -117
4170 1414 4 0.4238 4.486337961521194 -17.54136033326934 -13.737987744953154 24 1 28
5518 1864 3 -0.8476 3.982559766323435 -14.863547005981038 -16.16905058297509 0 3 -22
5519 1864 4 0.4238 4.180966258535648 -15.402641892606136 -15.350507839434638 0 -3 -156
3738 1270 4 0.4238 4.99153127717375 -14.77521079551892 -17.54152265666901 0 119 13
4168 1414 3 -0.8476 4.665234464837618 -17.18893597092785 -14.656570381970146 -41 -15 12
4169 1414 4 0.4238 4.800895752149584 -17.953713650324833 -15.286420834649252 -59 21 -5
4218 1430 4 0.4238 6.828008879285503 -17.45425646554312 -13.767326317844036 -90 -49 35
4216 1430 3 -0.8476 7.569634612960401 -18.120509660902837 -13.68923347664929 6 22 25
2438 837 4 0.4238 5.019022005350024 -19.053507072605942 -17.62543055408029 -72 -15 -16
3016 1030 3 -0.8476 5.110641955337171 -17.955801826230715 -18.944037863280684 7 -12 25
3018 1030 4 0.4238 6.105252593585438 -17.90821789157608 -18.851921189266402 -64 83 0
5023 1699 3 -0.8476 7.549774484264764 -14.713506566506657 -15.8487416321261 0 0 49
3737 1270 4 0.4238 6.614711975729063 -14.89778617354899 -17.67146955677584 0 38 8
3736 1270 3 -0.8476 5.7754843520661545 -14.6311661620225 -18.14540081165771 0 -5 -6
2734 936 3 -0.8476 7.847523879979204 -18.002937969683753 -18.865543506099325 0 -1 13
2735 936 4 0.4238 8.354150534209925 -18.85731099005381 -18.981199003264724 0 89 -24
2437 837 3 -0.8476 5.214792100927839 -19.516160102238217 -16.760776707656834 19 -13 25
5025 1699 4 0.4238 7.242753550728035 -14.334504648006861 -14.975760437107324 0 0 82
3835 1303 3 -0.8476 3.673054494504474 -14.213235532422619 -13.382385918110923 37 -20 -38
4217 1430 4 0.4238 8.304256180066105 -17.87730099782563 -14.3226225147312 -154 128 108
5682 1918 4 0.4238 3.5543747835563853 -15.662893434517368 -19.66281652894221 0 3 -40
5024 1699 4 0.4238 8.38857183524665 -15.23925694709928 -15.707300304110905 0 0 97
2736 936 4 0.4238 8.47521212566843 -17.279531499320342 -18.577983841679455 0 -10 1
5105 1726 4 0.4238 9.662691922598748 -17.00285763754653 -15.956493766250409 0 0 -151
5104 1726 3 -0.8476 9.760129477880986 -16.773786096873593 -14.987973149405379 0 0 60
5106 1726 4 0.4238 10.730864631700829 -16.70721211704894 -14.757232622213644 0 0 82
4545 1539 4 0.4238 9.677940087012269 -16.009120756778042 -18.333673878241232 -25 -27 49
2035 703 3 -0.8476 12.35774439840878 -15.92830788712595 -14.743434485718955 0 -13 38
5356 1810 3 -0.8476 12.24620876896199 -17.69947419812273 -17.402262723080558 0 13 11
4543 1539 3 -0.8476 9.780384466076148 -16.72244413654439 -17.640366649616528 25 -32 -7
4544 1539 4 0.4238 10.722091205081467 -17.05884884887332 -17.644873560157315 3 16 -21
4795 1623 3 -0.8476 12.439031327359217 -14.580101681810934 -17.36532789835625 -17 29 -42
4245 1439 4 0.4238 12.473850528676879 -14.870003475767083 -19.298344872359166 -121 -14 -22
5357 1810 4 0.4238 12.837275145449514 -17.861813867968852 -18.192381673947132 0 43 -21
5358 1810 4 0.4238 11.670859853329683 -18.502290624398775 -17.245865654661923 0 145 39
968 347 4 0.4238 9.702089673455513 -15.085071684841907 -14.127636558478551 66 8 -15
4796 1623 4 0.4238 12.329280110042504 -15.377879942766343 -16.77244971135423 -34 89 57
2037 703 4 0.4238 12.782149913806006 -16.83303026617537 -14.78027717304232 0 0 -26
2036 703 4 0.4238 12.952697932998522 -15.301277685096787 -14.240579199500374 0 31 4
2380 818 3 -0.8476 13.714152385327743 -17.74256812562376 -19.6583598179729 3 20 49
771 281 4 0.4238 13.626176784015037 -19.432869961004208 -14.20862434597209 0 71 -36
4660 1578 3 -0.8476 13.89417682726378 -18.13223393879981 -13.223580169219384 15 23 25
967 347 3 -0.8476 9.755212733987229 -14.127908939367162 -13.842999327654143 18 -24 -9
2610 894 4 0.4238 18.6416276449676 15.234685927446478 -11.266366960073407 62 -29 0
5670 1914 4 0.4238 19.46898579796664 -16.394108931127768 -19.127924742485515 -5 2 -25
1092 388 4 0.4238 19.5463311851754 -17.716427386076912 -16.290993911128183 -32 198 -44
529 201 3 -0.8476 15.829691621396513 -16.808431106769746 -17.84966475607699 0 28 -17
3920 1331 4 0.4238 18.03324350529008 -17.577027850054126 -15.580594339964497 -10 -5 0
3919 1331 3 -0.8476 17.99595030928028 -18.077530261360174 -16.44552589121929 22 -1 0
530 201 4 0.4238 15.863759892582303 -16.381381505186898 -18.75325095118401 0 -13 277
531 201 4 0.4238 15.260925294993635 -17.62991701630507 -17.89047866055445 0 65 -82
3134 1069 4 0.4238 15.867062471874947 -15.878569146009823 -16.322406244019763 -16 -24 74
3921 1331 4 0.4238 17.325179844748718 -17.64828725341513 -17.050354337761224 40 -22 0
3781 1285 3 -0.8476 17.73810103472445 -17.369330909993245 -13.793871394288372 -20 -11 28
3133 1069 3 -0.8476 15.887620481666861 -15.240341392201698 -15.552832354522568 19 -9 -135
3345 1139 4 0.4238 16.29560810335607 -15.424742770620988 -13.525423036268124 17 -72 -68
400 158 3 -0.8476 18.31515096939139 -14.715857504931568 -18.735660407629485 3 -1 -9
4004 1359 4 0.4238 18.999759742729346 -14.59104033777305 -14.205822939553967 -37 60 29
3135 1069 4 0.4238 15.251687327939804 -14.4883607148096 -15.726368295275396 -137 -23 -182
402 158 4 0.4238 17.76166513110172 -14.52012471537376 -17.926128284909545 -4 -14 -178
3783 1285 4 0.4238 17.586845483251796 -18.35002100657731 -13.669898561527221 -10 -41 -74
4005 1359 4 0.4238 17.639970616338765 -14.573977348379607 -15.10987467356985 53 -57 43
2691 921 4 0.4238 17.417779039923147 -19.630726850201594 -17.174131609599673 -1 15 -50
401 158 4 0.4238 18.06073397397837 -14.089753391458176 -19.472726116340635 -28 32 -30
2258 777 4 0.4238 -17.215782553949598 -14.084689626136345 -18.86712624392249 39 -42 29
5454 1842 4 0.4238 -15.717978276026932 -14.013454361086666 -15.21440741949042 2 3 89
790 288 3 -0.8476 -18.91991241624525 -13.810714450164546 -16.59964037525047 -37 0 27
5453 1842 4 0.4238 -17.256461033402545 -13.512407206477487 -15.434973878187161 -25 0 98
5452 1842 3 -0.8476 -16.34822634950371 -13.243538497099006 -15.11431796244712 22 -1 -62
1270 448 3 -0.8476 -18.95209209462779 -10.280165441736868 -16.6699553640098 -8 0 -5
4549 1541 3 -0.8476 -14.910683279688683 -10.841341859623864 -15.623709660542094 28 -38 0
4551 1541 4 0.4238 -15.618808401928773 -11.528221364034925 -15.460138968464896 -10 -98 0
1271 448 4 0.4238 -18.64696429597437 -10.484361969990069 -15.739793523097918 30 0 -10
5406 1826 4 0.4238 -18.37111733084915 -11.350913981156406 -18.204464726369356 2 -99 -9
5753 1942 4 0.4238 -17.858509548873204 -8.863276208102297 -18.973641429367994 29 80 6
5404 1826 3 -0.8476 -18.124171903870806 -12.062706382052331 -18.862012861673833 0 0 24
1272 448 4 0.4238 -19.51742878556551 -9.455345432187961 -16.66177141785048 -45 0 32
5236 1770 3 -0.8476 -15.064168698929823 -12.121386067675479 -18.36728574766939 -28 3 -28
5238 1770 4 0.4238 -14.789085534378437 -11.678997095192956 -17.513692469664853 258 -27 -22
5237 1770 4 0.4238 -16.057254467375465 -12.061963378009835 -18.46852810803762 -176 10 2
4646 1573 4 0.4238 -15.732462169556786 -9.151894408535181 -15.372625988128606 8 -10 -95
3007 1027 3 -0.8476 -19.39213720272966 -9.197913353194576 -14.032147862890646 16 0 -21
5754 1942 4 0.4238 -16.937051687959553 -8.997359993123695 -17.632163335624313 0 -117 126
5973 2015 4 0.4238 -15.936574849508478 -11.617475400618632 -13.39480138062084 40 -64 -20
5752 1942 3 -0.8476 -16.944434436711138 -8.722035484556416 -18.593486430258913 -1 51 -76
3009 1027 4 0.4238 -19.349398637188852 -8.663653211910985 -14.876386893304364 4 0 -70
5405 1826 4 0.4238 -18.916368979257772 -12.278474987237951 -19.43286113013897 -5 104 -88
5124 1732 4 0.4238 -14.093589085859746 -13.2497902969309 -19.312933364288735 -7 56 -14
792 288 4 0.4238 -19.661661112676565 -13.961492909421056 -15.946130463544494 31 0 107
4550 1541 4 0.4238 -14.034784947749877 -11.176396867752247 -15.276520543905717 -19 -103 0
2919 997 4 0.4238 -11.363448816055893 -13.827930464499495 -19.050529367099877 76 -6 -163
2420 831 4 0.4238 -8.716601811270152 -13.801041774754683 -16.197696981500115 5 0 -4
2191 755 3 -0.8476 -10.045703127753345 -10.917586883558375 -15.816136440268133 0 36 0
5141 1738 4 0.4238 -11.58140774583897 -11.372630217482183 -15.382330950419101 6 13 8
5140 1738 3 -0.8476 -12.471888443243376 -11.81854150183301 -15.29173664851833 -4 -6 0
5142 1738 4 0.4238 -12.403045942596348 -12.766601179588529 -15.60229034206565 24 -10 1
2193 755 4 0.4238 -9.719731174160733 -9.972361113041456 -15.833189926992477 0 7 0
2192 755 4 0.4238 -9.26417805188116 -11.538668980152027 -15.757175501473101 0 -40 0
2711 928 4 0.4238 -10.721830726173653 -9.92720485661602 -19.008531375499956 8 3 95
1377 483 4 0.4238 -12.792830414272009 -11.161305778362927 -13.433148250232142 137 1 24
2917 997 3 -0.8476 -10.4715020310524 -13.40555456600722 -18.889190249166496 24 102 49
2918 997 4 0.4238 -10.569888162148649 -12.410416472425272 -18.884571198877918 41 5 8
5932 2002 3 -0.8476 -8.547841930099326 -8.493843443769942 -14.759412067826295 0 53 0
2710 928 3 -0.8476 -11.257641216736895 -10.626027806849184 -19.482402528340614 -17 1 38
2712 928 4 0.4238 -12.180687173199969 -10.655360142684868 -19.098832612724 -29 8 15
5516 1863 4 0.4238 18.66868842627843 15.441584646052519 -7.914808830575957 8 0 -36
2094 722 4 0.4238 -8.616364633263704 -12.396711302232282 -13.614113280815133 0 -30 0
5934 2002 4 0.4238 -8.853779402714597 -8.621186796780856 -13.815914753162225 0 10 0
2419 831 3 -0.8476 -8.390378187425142 -13.096160564209567 -15.567839332847447 15 0 -15
4516 1530 3 -0.8476 -5.804707886705621 -13.777193455430314 -15.005233474669557 0 34 0
4518 1530 4 0.4238 -5.23927068902606 -12.967287907144303 -14.84923995222116 0 86 0
2421 831 4 0.4238 -7.443009971497658 -13.289654073775653 -15.312782890745536 20 0 2
457 177 3 -0.8476 -6.755763825168155 -10.799358091855295 -17.09057259938182 -6 -7 17
459 177 4 0.4238 -6.66965749810555 -10.64672029924768 -18.075097119602233 14 92 -39
1459 511 3 -0.8476 -3.2740012854451352 -11.88928400621846 -18.831546195352644 0 10 -24
1460 511 4 0.4238 -3.7502850278326494 -11.691090500414287 -17.97488137690157 0 -16 -86
3276 1116 4 0.4238 -3.5881287471324224 -10.700684534582571 -15.987125358268052 0 -44 0
3274 1116 3 -0.8476 -4.123205675582357 -11.40293462266779 -16.45673956027706 0 -23 0
458 177 4 0.4238 -7.378104586580257 -11.564405864623883 -16.925061054727685 -29 -59 2
3275 1116 4 0.4238 -5.0282733883468955 -11.039871535046661 -16.678184041357277 0 27 0
547 207 3 -0.8476 -5.862239678175518 -8.63947012952501 -14.414172335056103 -1 6 -24
5933 2002 4 0.4238 -7.548429285966837 -8.508191653574691 -14.790553836511444 0 -156 0
549 207 4 0.4238 -5.609029932203396 -9.600510590007637 -14.525014891435386 -1 -64 56
1503 525 4 0.4238 -3.2060139590375587 -13.008547874921684 -16.510654139907256 30 0 0
1461 511 4 0.4238 -3.9411408790427007 -11.976558265264263 -19.57135002990202 0 24 109
3398 1157 4 0.4238 -2.8101707394824498 -10.407720394009393 -13.93290176578894 0 0 23
548 207 4 0.4238 -6.086226475035294 -8.462189846365789 -13.455839576326985 -1 64 37
1502 525 4 0.4238 -2.441178271553147 -14.081656972017825 -17.475065976025807 -30 0 0
1501 525 3 -0.8476 -2.5959421952049446 -13.80070692807305 -16.527903938647846 24 0 0
3155 1076 4 0.4238 1.306254218953085 -12.66430725231617 -15.2199165347176 -1 -131 27
3372 1148 4 0.4238 -1.0732774478562177 -13.057118152227334 -15.66344175396947 0 0 14
3370 1148 3 -0.8476 -0.43458629675231475 -12.376610913482155 -15.304298995339513 0 0 -15
3371 1148 4 0.4238 -0.9344859650806179 -11.544632158282834 -15.063650501081357 0 0 -32
692 255 4 0.4238 1.430183399908305 -9.669300020227595 -14.667478685161432 30 -50 1
691 255 3 -0.8476 1.2939181875052375 -9.748656646945264 -15.654967874840892 -6 -79 1
3397 1157 3 -0.8476 -1.994632460657188 -10.21919062373864 -14.480034423230833 0 0 -41
3399 1157 4 0.4238 -1.634147719098004 -9.317517387690165 -14.241210466344357 0 0 2
2500 858 3 -0.8476 -1.3302126574006485 -13.725484436839077 -19.076943432253525 0 54 22
2501 858 4 0.4238 -1.9865903830955773 -12.986061031833714 -18.92720574171321 21 29 -43
3154 1076 3 -0.8476 2.2651283808097986 -12.941877062660605 -15.279207301170263 -16 -8 -33
5583 1885 4 0.4238 -0.3662635112723633 -12.866949488836918 -13.501827753414327 0 18 0
693 255 4 0.4238 0.8642504054865547 -8.914296690194815 -16.000263979995268 21 9 1
5421 1831 4 0.4238 2.5335890795494915 -12.348415221101364 -18.62903481689427 0 46 48
3156 1076 4 0.4238 2.6834327145987515 -12.525250949244342 -16.086328235684938 -17 33 3
5420 1831 4 0.4238 2.1804444664208895 -10.969652458972822 -17.828454537558223 0 56 23
1302 458 4 0.4238 0.43713557076755744 -12.805895163688145 -19.690067842761998 0 -6 33
5419 1831 3 -0.8476 2.7343197478063397 -11.802156717710446 -17.815825089079134 0 -28 -27
1434 502 4 0.4238 5.305269438460419 -13.641461160637265 -13.446505774500784 -10 10 8
3836 1303 4 0.4238 3.0219359741381853 -13.806405192098643 -14.023115017360501 -58 65 42
6009 2027 4 0.4238 3.0584375825515067 -10.57436143582121 -15.129811406343512 0 -8 -23
1432 502 3 -0.8476 6.249350567096118 -13.336684746824846 -13.572292030085102 63 -16 -54
4486 1520 3 -0.8476 5.2943265500822125 -12.120066958482075 -18.818777865657903 -4 0 -56
5552 1875 4 0.4238 6.809457273439018 -10.83314907862018 -18.258229955991993 2 -17 -49
4487 1520 4 0.4238 4.470805304254525 -12.00537425002742 -18.263207565740018 -12 -5 -99
4488 1520 4 0.4238 5.63342436489319 -13.055917847826636 -18.72288307265183 27 0 -109
3676 1250 3 -0.8476 6.346296653600788 -11.4772557684644 -15.361516935114789 0 -10 -5
3678 1250 4 0.4238 6.3597869878547755 -12.07743619602492 -16.16126781631552 0 -45 -37
3677 1250 4 0.4238 5.4489640914328765 -11.042366067480515 -15.28624896267934 0 51 3
6007 2027 3 -0.8476 3.986153529288737 -10.255184207777395 -14.936240357473443 0 25 4
5604 1892 4 0.4238 7.812961018301814 -10.780477276386957 -14.258164874706194 0 -94 0
5553 1875 4 0.4238 7.826998039964533 -9.908837308254297 -17.376818846010355 -5 5 -28
5551 1875 3 -0.8476 7.750984981683066 -10.506705120450455 -18.174801668927394 -13 26 -9
1433 502 4 0.4238 6.262361094799795 -12.523494713779208 -14.154144873593275 -59 61 -45
6008 2027 4 0.4238 4.018252763006971 -9.861297474808813 -14.017641817215528 0 -11 -92
1581 551 4 0.4238 4.037850644635607 -9.140985044441601 -16.640708078456125 0 0 0
1579 551 3 -0.8476 4.196013775108389 -8.457250733441061 -17.353093066266517 0 0 0
4797 1623 4 0.4238 11.576418980699694 -14.076130047843641 -17.409060919594964 -35 42 -94
5500 1858 3 -0.8476 13.473086341512325 -13.944852844092646 -13.303237315793051 0 61 4
1583 552 4 0.4238 9.538859479717733 -13.508606014152612 -15.881791031162932 0 0 -41
5602 1892 3 -0.8476 8.686578186896009 -10.80843763686747 -13.772354083015518 0 -41 0
1098 390 4 0.4238 9.522116312544556 -9.941856588806989 -15.161753397688315 -13 17 -160
969 347 4 0.4238 10.634129005340437 -13.744203342204488 -14.126331497372973 -1 64 31
1582 552 3 -0.8476 10.19018945914303 -13.33507409549854 -16.620476469891607 0 0 106
1584 552 4 0.4238 10.11473636235435 -12.382224036144828 -16.914387783074346 0 0 -6
3543 1205 4 0.4238 10.337111197520784 -10.131778210229418 -17.098710575759245 0 -1 70
1133 402 4 0.4238 12.490877602853816 -11.536554416272669 -14.79143959808414 0 -5 -47
1132 402 3 -0.8476 11.87918022300282 -12.178404531081759 -14.328995250921782 0 39 16
3541 1205 3 -0.8476 11.006489927066845 -10.722934689525598 -17.548674228372253 0 1 -94
3542 1205 4 0.4238 11.916164329554375 -10.54084710657317 -17.175395401984314 0 -5 -98
4714 1596 3 -0.8476 13.464177720010364 -10.341815009598774 -15.628843448410512 -2 -7 -14
2265 779 4 0.4238 9.461503932126705 -12.25323241407371 -18.866290716789614 -39 0 -44
4325 1466 4 0.4238 13.864989757359178 -13.732325340927598 -16.85232549115472 -26 -99 -7
1096 390 3 -0.8476 9.4798802095552 -9.10933502964748 -15.714134706476516 6 -6 -16
4715 1596 4 0.4238 13.604436684223353 -9.555064519779371 -16.22996832882504 6 -61 -23
5502 1858 4 0.4238 12.903025953892472 -13.412094242611929 -13.92869671359472 0 0 -12
1134 402 4 0.4238 11.515140477282435 -11.753586627429849 -13.500137705157732 0 -34 76
2263 779 3 -0.8476 9.856858354018215 -12.691150036659076 -19.673708502855508 -24 0 17
674 249 4 0.4238 11.534998909763466 -10.212386106640503 -19.65830222687989 -35 55 -48
5603 1892 4 0.4238 8.837251398669666 -11.7282775379473 -13.41014920526501 0 -8 0
4326 1466 4 0.4238 14.012710142090384 -12.15070244560236 -16.473809697108994 34 15 1
1097 390 4 0.4238 8.726056614715757 -8.5351923722211 -15.394586674754079 -76 24 -164
5683 1919 3 -0.8476 13.832443701122973 -8.43610620802244 -17.57594115664364 25 0 8
4716 1596 4 0.4238 14.1880101834964 -10.36770333088197 -14.939353497804637 -23 -18 -54
4003 1359 3 -0.8476 18.40947100551735 -14.025847570461892 -14.782118833464413 -32 -1 17
5685 1919 4 0.4238 14.261937268043829 -8.590555775804008 -18.465705523038295 -136 0 -46
4324 1466 3 -0.8476 14.512940755100677 -12.999748185047002 -16.643782301216877 25 15 -21
1468 514 3 -0.8476 15.478722342163941 -10.310710638056602 -13.719889501154087 14 1 0
1470 514 4 0.4238 16.315211816635916 -10.849205447414258 -13.82142137959971 -112 -25 0
3585 1219 4 0.4238 16.69112729752922 -11.785092747354085 -18.328796389256258 -41 0 7
3584 1219 4 0.4238 15.719197151893784 -13.086609167991707 -18.16136491052989 102 0 -109
3583 1219 3 -0.8476 16.349982592997744 -12.612223172256126 -18.77542327391165 28 0 110
1840 638 3 -0.8476 17.246876798355032 -10.104436005168855 -17.97120700790315 -39 -1 66
1841 638 4 0.4238 16.776473466251026 -9.551770178341227 -17.28325215596061 64 -1 -49
4557 1543 4 0.4238 18.37558475990135 -12.484184150868428 -13.91993640143138 50 -10 0
1842 638 4 0.4238 18.187649279259247 -10.272982727672815 -17.677031278622387 -135 -1 27
4555 1543 3 -0.8476 18.119260845943284 -11.59723971575331 -13.535712969498599 79 -1 -4
4556 1543 4 0.4238 18.61239683975641 -10.871268725514838 -14.015069850085894 -32 7 25
3008 1027 4 0.4238 19.38438630993854 -8.75861588226042 -13.391203158441444 -3 0 -60
2553 875 4 0.4238 14.923219855712816 -8.563748963659872 -13.745575759934512 54 0 1
4647 1573 4 0.4238 -15.628066870317776 -7.762311286999198 -14.521281674986117 21 -15 36
4803 1625 4 0.4238 -15.271820817430243 -8.23643268790462 -19.129870416318802 -6 42 49
4645 1573 3 -0.8476 -16.079354975431745 -8.217752479338246 -15.288688291727965 7 0 -10
1592 555 4 0.4238 -18.6319863494121 -5.568962106283112 -14.56026756747565 -18 0 -21
1591 555 3 -0.8476 -17.673179273487104 -5.799458973890443 -14.394252925973175 -47 0 -9
1593 555 4 0.4238 -17.58060721980117 -6.790405036553746 -14.297007645990593 -28 19 62
4977 1683 4 0.4238 -16.520078730316346 -6.571891306062404 -16.52111778847862 -92 1 -33
4975 1683 3 -0.8476 -16.033020138053892 -6.128004627599141 -17.273274066519384 41 1 6
4976 1683 4 0.4238 -15.51780283951531 -6.8136968266294256 -17.78745093943203 102 1 11
3141 1071 4 0.4238 -17.2396517204951 -3.9377523076403973 -14.208672320378295 29 0 0
2059 711 3 -0.8476 -18.57068814765897 -4.267386116747376 -16.919133048621354 5 0 53
1224 432 4 0.4238 -15.622821370277656 -4.366469495491155 -18.976716691267285 -31 2 4
2060 711 4 0.4238 -17.886718788021405 -4.982347408215978 -17.064103716306413 82 0 -48
2061 711 4 0.4238 -18.96430921851615 -4.363131730610972 -16.004859741456546 -22 0 -38
3139 1071 3 -0.8476 -17.098820179979544 -3.0388511985680244 -13.793770781242833 -46 0 0
4801 1625 3 -0.8476 -14.471758817151711 -7.65641271203958 -19.283094576377174 63 14 -62
1222 432 3 -0.8476 -15.33541537608868 -3.417528387002374 -19.106749669709757 90 1 -16
5948 2007 4 0.4238 -14.599854214271115 -3.8018524344229547 -16.260620044142282 26 -60 -22
5947 2007 3 -0.8476 -14.244528693426194 -2.897710133381211 -16.023405897842874 5 34 72
4700 1591 4 0.4238 -19.6266625359937 -5.353422082303332 -18.010770798220367 -59 -39 204
2699 924 4 0.4238 -15.48824512763515 -3.0368939106682693 -13.386974464520396 -28 0 15
711 261 4 0.4238 -18.218405878935116 -2.8461718601153274 -18.1391527242471 34 0 -22
1223 432 4 0.4238 -16.08537499609431 -2.8049392240749182 -18.85715978478725 20 19 12
1450 508 3 -0.8476 -14.037504104951307 -6.015335661644867 -13.437414709348072 38 0 -35
4754 1609 4 0.4238 -9.586917140366262 -7.609202404327515 -17.84375750046238 0 58 115
4753 1609 3 -0.8476 -10.199901174797485 -7.797720250760521 -18.611032958428563 0 -6 -101
4755 1609 4 0.4238 -11.011923298086613 -7.2185544597855245 -18.53901150426949 0 -15 -44
1451 508 4 0.4238 -13.804749042454922 -5.805260253140944 -14.386990107905053 91 0 15
2899 991 3 -0.8476 -12.557401947729192 -6.1994462664875565 -18.124955391653952 -30 0 0
2900 991 4 0.4238 -12.720503836973382 -5.816334084734146 -17.215767371513365 115 0 205
3629 1234 4 0.4238 -12.754068750064842 -3.9711689135610384 -15.785253331620408 -137 7 17
3630 1234 4 0.4238 -11.68454220799099 -5.131257757260784 -15.364618872785831 75 -2 7
3628 1234 3 -0.8476 -12.578930340785151 -4.955669310791731 -15.776005049564601 32 -6 -37
2860 978 3 -0.8476 -10.122093976617693 -4.623478157393302 -14.564056619414162 0 -68 36
789 287 4 0.4238 -9.67566366013364 -3.1916456893199565 -17.527630642714687 -10 0 -33
2862 978 4 0.4238 -9.315424747782332 -4.047730885793534 -14.430640533658336 0 41 -64
4287 1453 4 0.4238 -9.651964434536097 -5.895501252789314 -15.768962671890606 135 0 -19
2861 978 4 0.4238 -10.421452099750002 -4.987364899502194 -13.682029872585916 0 -13 55
2901 991 4 0.4238 -13.391201041344212 -6.642366768388804 -18.45450131552826 6 0 24
4285 1453 3 -0.8476 -9.249661329254494 -6.625587477061834 -16.32134511180079 -12 0 5
3489 1187 4 0.4238 -11.155053816248957 -4.812415575264177 -18.857595337818836 10 0 81
4286 1453 4 0.4238 -8.88639395790431 -7.337067520254853 -15.719819511830027 27 0 20
3487 1187 3 -0.8476 -10.70439885503776 -4.030206884619661 -19.287780971897323 47 0 -31