LAMMPS data file via write_data, version 23 Jun 2022, timestep = 7500000

6012 atoms
4 atom types
4000 bonds
1 bond types
2000 angles
1 angle types

-19.524706763984398 19.524706763984398 xlo xhi
-19.524706763984398 19.524706763984398 ylo yhi
-19.524706763984398 19.524706763984398 zlo zhi

Masses

1 22.99
2 35.423
3 15.999
4 1.008

Bond Coeffs # harmonic

1 517.63 1

Angle Coeffs # harmonic

1 37.9505 109.47

Atoms # full

2581 869 3 -0.8476 -15.98418937631751 -17.00791505772576 -16.261236712261965 2 -6 -11
2583 869 4 0.4238 -16.534440848686497 -17.163267157746606 -15.440816121572107 -56 -58 -44
2582 869 4 0.4238 -15.064925036026413 -16.71713810271878 -15.995901803216558 5 5 9
139 55 3 -0.8476 -17.943008089607016 -17.898913570126943 -14.444565443151472 0 -28 -13
140 55 4 0.4238 -17.832828994401027 -18.455064752039362 -13.62082004997097 0 33 -33
5170 1732 3 -0.8476 -17.653182150465746 -15.261088549389465 -13.89862922412738 -8 0 -18
5172 1732 4 0.4238 -18.47025429981069 -14.718081932816382 -14.092375732527367 -27 0 44
5171 1732 4 0.4238 -17.87776081553194 -16.23377736508349 -13.957298298214564 59 0 4
1548 524 4 0.4238 -17.999853133819677 -14.991659828118834 -11.411203604325497 100 -6 0
1124 383 4 0.4238 -17.495954093774795 -18.170108853274286 -11.424953835563201 38 -48 0
141 55 4 0.4238 -18.655623288015263 -18.296698977491733 -15.022446367887495 3 119 -12
1546 524 3 -0.8476 -18.592433607080167 -14.249587358497731 -11.097871752834225 -24 13 0
1547 524 4 0.4238 -18.819164434983957 -13.655575085261912 -11.86971539165947 35 -10 0
1198 408 3 -0.8476 -16.32045949171269 -14.810951136177628 -17.64652696070356 46 6 4
1123 383 3 -0.8476 -17.61778296438798 -17.31692702340748 -10.917765866589814 -1 -6 0
5472 1832 4 0.4238 -16.566910537540476 -18.366507055129244 -17.308451835511377 -6 -57 0
1799 608 4 0.4238 -18.565424155495478 -18.66340973348146 -18.37641267118749 101 145 90
1200 408 4 0.4238 -16.446384482382637 -15.701005396313642 -17.208410156839008 97 26 -16
1199 408 4 0.4238 -15.37290875477235 -14.721568030266326 -17.953379154897686 48 2 -30
3061 1029 3 -0.8476 -13.286715728143172 -15.835352628847255 -13.789876837578827 0 -35 20
978 334 4 0.4238 -17.77069249061552 -13.776541433992367 -17.458543142253223 8 0 -42
3921 1315 4 0.4238 -16.331562146218747 -14.04252383791744 -13.532952193529924 -40 34 -19
1125 383 4 0.4238 -18.477408195173926 -17.35201715067642 -10.408046412896555 -11 -15 0
3063 1029 4 0.4238 -14.052836098192612 -15.628462733256312 -13.18138988659479 0 17 12
976 334 3 -0.8476 -18.744103876933245 -13.552583187827906 -17.506636969001047 1 3 -18
709 245 3 -0.8476 -13.218586617158426 -16.33976957601316 -16.364673744638942 6 3 -35
1179 401 4 0.4238 -17.270163851084018 -13.391776986628491 -10.05620154065803 12 45 0
4506 1510 4 0.4238 -13.318154095221367 -15.503932002165493 -17.88716801112973 6 9 123
4504 1510 3 -0.8476 -13.430868719364188 -15.093597807075247 -18.792110709507103 -3 20 29
3919 1315 3 -0.8476 -15.661938010729582 -13.515631701532072 -13.009512550339853 -85 8 -23
4344 1456 4 0.4238 -16.06180730637514 -16.76461206115658 -10.42356004611765 -18 0 -16
4810 1612 3 -0.8476 -13.350006661635065 -18.614648143181057 -10.019142452457737 0 -3 0
5470 1832 3 -0.8476 -16.895429127094943 -19.207132726942667 -17.73906077705359 0 -8 0
710 245 4 0.4238 -13.299117801361788 -16.048673365215617 -15.4113753628496 -63 -42 1
4812 1612 4 0.4238 -13.949184606145804 -17.814053149308066 -10.024928385619283 2 -35 0
3920 1315 4 0.4238 -16.036813570254743 -13.303067460695475 -12.10713498697762 81 -3 -82
1263 429 4 0.4238 -16.434096277132493 -18.882665177319986 -19.493667152737316 46 26 -37
4342 1456 3 -0.8476 -15.2394712542298 -16.67140403116694 -9.862242367811021 -7 0 10
3507 1177 4 0.4238 -18.619626378633917 -13.073995148777477 -19.266843385969242 27 -26 -2
4343 1456 4 0.4238 -14.869353270068201 -15.748008680854099 -9.96399632798154 14 0 64
3695 1240 4 0.4238 -13.093177334917739 -18.74156207538342 -19.13768524484714 -1 106 20
1798 608 3 -0.8476 -19.5011034289143 -18.32248258417298 -18.285456623283775 -32 23 23
4734 1586 4 0.4238 -13.014227559798558 -18.78860137341679 -11.759713018455912 0 -32 -4
4733 1586 4 0.4238 -13.010937300318753 -18.111280763904894 -13.245597426381615 0 21 -109
4505 1510 4 0.4238 -12.694441662939127 -14.436824087372989 -18.954355909313854 -109 10 -12
3062 1029 4 0.4238 -12.426966184902767 -15.608506338507258 -13.332305049974547 0 -56 14
2398 808 3 -0.8476 -9.40955229779216 -18.83315561073412 -18.151041325800385 -16 1 1
4732 1586 3 -0.8476 -12.628371831929588 -18.84240112944691 -12.68070214570663 0 16 -48
2538 854 4 0.4238 -11.640117577147107 -15.419431849003942 -10.32012398292339 71 7 -25
247 91 3 -0.8476 -10.224422819970751 -13.545954343981345 -16.916405830296977 0 -14 6
1213 413 3 -0.8476 -10.545184267357339 -16.636305193427788 -17.161954962930572 -67 1 13
1215 413 4 0.4238 -9.783598771609416 -15.99133301695904 -17.09872157424705 55 1 -21
248 91 4 0.4238 -9.592004242906615 -14.313828025910754 -16.814343227993874 0 -64 80
424 150 3 -0.8476 -10.813244478201307 -14.557127039302046 -12.3789157961628 -6 14 0
425 150 4 0.4238 -10.21181542616123 -15.352439540329492 -12.454818194474365 4 33 0
426 150 4 0.4238 -10.327238309075447 -13.814473557924883 -11.918194754481496 12 26 0
711 245 4 0.4238 -12.264360352624147 -16.560736472510698 -16.566232457783112 62 -18 -55
4864 1630 3 -0.8476 -9.132002016595582 -16.616965879788868 -12.365760806564683 0 -7 28
4865 1630 4 0.4238 -9.435772735611536 -17.568112921205966 -12.310591113790663 0 28 44
4866 1630 4 0.4238 -8.178115706287102 -16.554153832535352 -12.072236775117599 0 8 50
4591 1539 3 -0.8476 -8.352089808810307 -15.35403517597002 -16.727021859450446 136 -47 0
4593 1539 4 0.4238 -8.04841580878555 -16.10567236251835 -16.141510397347737 -85 -36 0
1214 413 4 0.4238 -10.215527965790482 -17.50643619629387 -17.528286500520725 19 0 53
4592 1539 4 0.4238 -7.611398398326256 -14.689779874393567 -16.82772519202161 -13 56 0
2968 998 3 -0.8476 -7.580382022951635 -17.42258550625509 -14.894609094963648 0 -8 -3
2970 998 4 0.4238 -7.912212818754836 -18.357940629437334 -15.017080698020951 0 -13 4
368 131 4 0.4238 -8.759566821873388 -17.053764002397468 -19.230263798466208 -104 -60 -45
2981 1002 4 0.4238 -11.411685109684502 -13.507365921954657 -15.63777909996069 1 98 0
2980 1002 3 -0.8476 -12.081454179676223 -13.47150030516982 -14.896075600442076 1 -9 0
2982 1002 4 0.4238 -11.695598587844145 -13.897314449257943 -14.077663615932016 5 39 0
4681 1569 3 -0.8476 -10.054231312414274 -19.14187641511027 -11.847633412875924 0 -81 -18
915 313 4 0.4238 -9.794416945709154 -18.49415201249718 -10.264431682487297 17 11 0
4682 1569 4 0.4238 -11.04929752165812 -19.143928398503984 -11.946825386680052 0 30 54
2399 808 4 0.4238 -8.431296484251746 -19.027107213692904 -18.07756146958949 -1 77 -56
979 335 3 -0.8476 -11.329280259899072 -13.501489960516057 -19.372302683453306 0 0 -88
2969 998 4 0.4238 -7.509701283670121 -17.21917533251003 -13.918069974403497 0 -5 -34
249 91 4 0.4238 -10.567515378883604 -13.519249020696105 -17.855327731755203 0 21 54
3470 1165 4 0.4238 -7.028021264234797 -13.311052979520612 -12.95328124132779 38 0 -10
3562 1196 3 -0.8476 -6.65488397380052 -19.19824183895039 -18.65782617197528 -7 14 -4
3571 1199 3 -0.8476 -6.591056576081438 -19.172232244032724 -10.054706314789268 17 -63 4
5490 1838 4 0.4238 -6.734611640632274 -16.113021055070494 -10.236069667481718 0 -30 39
5488 1838 3 -0.8476 -6.5156779520786 -16.607282762963962 -11.077362375657996 0 -19 -61
5489 1838 4 0.4238 -6.223807147356315 -17.536704794617563 -10.851561241006749 0 -5 67
1064 363 4 0.4238 -6.381513433608506 -15.746126168864883 -19.146421063207498 0 -39 -52
3563 1196 4 0.4238 -6.08215968713406 -18.707336711338083 -19.314332072118436 -9 58 -44
4735 1587 3 -0.8476 -0.26522180817495494 -17.567277760683297 -16.50790197702589 -6 0 14
4888 1638 3 -0.8476 -2.665862445292409 -19.13341721567852 -16.933567496130227 0 72 0
1033 353 3 -0.8476 -5.804463030293738 -14.092143365003665 -17.058220962198092 0 47 -35
5961 1995 4 0.4238 -6.0703359520286755 -18.245722598470962 -16.39925203702444 0 -67 -19
5960 1995 4 0.4238 -5.056329030583 -17.811929623767128 -15.194992872241366 0 -34 10
5924 1983 4 0.4238 -4.756625698585751 -13.87430449958197 -12.012263277403404 0 0 0
5925 1983 4 0.4238 -5.67160119362349 -15.210308574461 -12.223307759898148 0 0 0
5923 1983 3 -0.8476 -5.141055936755158 -14.502093358557696 -12.689090492560911 0 0 0
1034 353 4 0.4238 -5.016956646628998 -14.594498703220836 -16.70118696880921 0 -72 52
636 220 4 0.4238 -4.35717615233858 -15.113948053620817 -14.047710681104581 -3 1 15
634 220 3 -0.8476 -3.91163020940521 -15.254545410492762 -14.931860680227203 -12 1 9
635 220 4 0.4238 -3.236810251588415 -14.532338432665 -15.083633940498867 6 -6 14
5980 2002 3 -0.8476 -1.0416176028558393 -17.35325182043237 -11.342317977310405 28 70 8
5981 2002 4 0.4238 -1.0194206387574916 -17.194853818381794 -12.329444380036609 13 50 34
5982 2002 4 0.4238 -1.9900098343914736 -17.456790315448835 -11.042598054397788 -69 88 -93
5959 1995 3 -0.8476 -5.144528051785947 -18.347116375789252 -16.035109852893612 0 -50 30
4736 1587 4 0.4238 -1.0429402078847005 -18.177353128648708 -16.659438298500184 0 -7 84
4890 1638 4 0.4238 -3.517831946052309 -18.72024132033837 -16.6119546322982 0 -21 0
5038 1688 3 -0.8476 -3.895448950832614 -16.1437370150027 -17.51332261319724 1 0 -27
5040 1688 4 0.4238 -2.9680905431197333 -15.769615747221684 -17.507022735936545 -2 0 -32
5039 1688 4 0.4238 -4.152846866891805 -16.41226209394679 -16.585076628694694 1 0 -33
4260 1428 4 0.4238 -1.5134091229045425 -14.071836643752606 -16.166115063276187 0 1 7
1065 363 4 0.4238 -4.7626580378824 -15.693764778386596 -18.9385942169599 0 3 -57
3760 1262 3 -0.8476 -1.337279962628136 -15.212429620913177 -17.284880900638388 0 11 0
3761 1262 4 0.4238 -0.8589692080911973 -15.933586504556207 -16.78373060690007 0 41 0
4816 1614 3 -0.8476 -3.477779080114295 -13.557483340622959 -10.254003683030366 0 22 0
4818 1614 4 0.4238 -2.710146995387785 -14.079228558219778 -10.626190655088447 0 -21 0
3762 1262 4 0.4238 -0.8863520101033069 -15.062621017167228 -18.164779411965878 0 15 5
4258 1428 3 -0.8476 -1.9498793452325187 -13.41657023983052 -15.54957654948765 0 1 7
3319 1115 3 -0.8476 -0.48553585285702744 -14.787598003313105 -10.056674904703863 0 16 0
4889 1638 4 0.4238 -2.6944486143212125 -19.22421223248934 -17.929027461592277 0 168 0
3320 1115 4 0.4238 -0.6332329949027838 -15.691454142223188 -10.458209503959152 0 86 0
1035 353 4 0.4238 -5.671106933990562 -13.112579120631494 -16.90765369200399 0 99 17
4886 1637 4 0.4238 -0.3920657903427741 -18.116758023977027 -9.842797340717384 0 0 -18
1063 363 3 -0.8476 -5.522713852063486 -15.386341472076122 -19.511137788812658 0 18 103
1177 401 3 -0.8476 -16.356206971190165 -13.014984113306419 -10.20689982019942 -18 4 0
3273 1099 4 0.4238 -18.255424231985785 -6.50836453332787 -11.350462363048546 10 -13 0
3706 1244 3 -0.8476 -13.553611199913288 -6.5913855445491345 -11.763828281872316 0 0 20
977 334 4 0.4238 -18.953755757034223 -12.833299405903073 -16.84431004483316 -3 9 48
3180 1068 4 0.4238 -15.936142679006897 -6.954333453751685 -15.49533302684807 13 85 1
4083 1369 4 0.4238 -15.094641888892994 -12.40747593370365 -14.582130320885646 -18 0 32
4432 1486 3 -0.8476 -18.9865480422256 -12.46329714099374 -13.009838292533694 49 -11 1
4433 1486 4 0.4238 -18.326195653572242 -12.051503100291301 -13.637819806629754 -12 -85 1
5864 1963 4 0.4238 -17.821395411380877 -7.926917056186046 -14.635367345802234 39 0 -9
3812 1279 4 0.4238 -15.656477459474353 -9.359817031107239 -17.683140808557596 -1 -10 -11
3900 1308 4 0.4238 -15.147682199226068 -8.975847300131228 -12.193441675247541 0 0 -28
3898 1308 3 -0.8476 -15.529345551000112 -8.626803695435127 -11.3375785580949 0 0 30
3120 1048 4 0.4238 -18.501775295445597 -10.53955323394748 -15.738819686221532 -95 7 0
671 232 4 0.4238 -17.111054126055667 -11.459387818297424 -10.620711010343134 -30 0 0
1711 579 3 -0.8476 -17.165698424066623 -9.32470118749644 -15.405255565978017 -8 0 -15
1712 579 4 0.4238 -16.83709620741194 -8.932188545103239 -16.26429935294134 19 0 -42
3272 1099 4 0.4238 -16.799820046282157 -7.228822040453502 -11.520120669694727 -21 7 0
1713 579 4 0.4238 -16.38482335871652 -9.574444537032196 -14.832662348602591 7 0 21
3811 1279 3 -0.8476 -16.22344202819732 -8.559155400305531 -17.87676971267674 -13 2 12
4466 1497 4 0.4238 -14.772103323620351 -11.249937778914875 -18.574480987561223 0 0 -8
2683 903 3 -0.8476 -14.717018092512522 -9.492815671931092 -13.932169007710327 -24 1 0
4465 1497 3 -0.8476 -14.42527200136933 -10.823953782266791 -17.73886932205711 0 0 -69
2685 903 4 0.4238 -14.581714101603758 -10.391081334631654 -14.350273825526308 -7 1 -42
4081 1369 3 -0.8476 -14.395330290102457 -12.107936184384883 -15.231159795432903 4 0 19
3118 1048 3 -0.8476 -19.102430374934823 -11.336428320952631 -15.673977411990261 -19 2 2
670 232 3 -0.8476 -17.3631414941315 -10.513415534553767 -10.416775243410337 10 0 0
672 232 4 0.4238 -16.675126004523754 -9.89563414800938 -10.79753996879672 -22 0 0
4467 1497 4 0.4238 -14.228740729236199 -11.532001781663473 -17.060603698084375 -5 0 -48
3899 1308 4 0.4238 -14.977120728384985 -8.951188865441868 -10.56957984105005 0 0 53
4082 1369 4 0.4238 -13.521582818236569 -12.536431815098528 -15.001036090709547 -24 0 30
5863 1963 3 -0.8476 -18.2087853391967 -7.037249734470099 -14.393661276060243 -52 0 48
2684 903 4 0.4238 -14.14517626777649 -8.818288018249131 -14.399083773786675 -91 0 36
5865 1963 4 0.4238 -17.740161517016972 -6.677781343442469 -13.586706888604393 73 0 -18
3813 1279 4 0.4238 -16.316124437508964 -8.447772268717703 -18.866215917335968 -33 -7 2
4295 1440 4 0.4238 -19.0288127878988 -9.842670565555052 -11.374938084990353 -48 22 -10
3708 1244 4 0.4238 -14.378353261713073 -7.133136732271214 -11.601635764271961 0 0 -26
4721 1582 4 0.4238 -13.497611482419723 -6.509122827411493 -17.953604062141594 -166 34 -11
1267 431 3 -0.8476 -19.51308590481411 -7.0194158570543035 -10.400733581363568 21 0 0
3471 1165 4 0.4238 -8.178660719004256 -12.316995655784686 -12.357877236305583 15 0 -16
3469 1165 3 -0.8476 -7.337273525227066 -12.361772158359813 -12.89645326136008 -18 0 -6
3534 1186 4 0.4238 -12.520552644011179 -9.883370823772012 -16.884842971256283 -51 -6 1
3043 1023 3 -0.8476 -12.471442131773877 -7.70442101071933 -19.043835551248883 0 0 -9
5533 1853 3 -0.8476 -9.647346378036016 -12.509709494876521 -11.27420245804534 0 46 12
5534 1853 4 0.4238 -9.496909640458139 -12.339741766932665 -10.30030319127811 0 22 4
3672 1232 4 0.4238 -12.40314450033021 -7.788411948240721 -15.57595661194835 0 24 0
3369 1131 4 0.4238 -9.719241291110704 -11.810963626965362 -16.550267530025668 -22 -50 71
3654 1226 4 0.4238 -10.483331488690395 -7.508990655129568 -12.048010182860835 -7 -64 0
3670 1232 3 -0.8476 -12.918524705589368 -7.460798565291967 -14.784089321580934 0 3 0
3608 1211 4 0.4238 -11.390174835039552 -10.545940040610132 -13.671536918316704 0 0 58
3368 1131 4 0.4238 -8.850518114073441 -10.647763074597103 -15.802664006797496 12 -13 -110
3367 1131 3 -0.8476 -9.534838929218465 -10.82898087083537 -16.508967892882406 -26 -25 -51
3532 1186 3 -0.8476 -11.907133984789652 -9.12037074402802 -16.681007615379734 29 -2 8
3533 1186 4 0.4238 -10.982387072441947 -9.468229011821725 -16.52661014909113 -7 16 9
3607 1211 3 -0.8476 -10.799397617870294 -10.548997349164079 -12.864707978722613 0 0 -11
5550 1858 4 0.4238 -7.733319739796722 -11.150478082773622 -14.072168844554179 0 68 20
5549 1858 4 0.4238 -7.884899140738824 -9.540493033651607 -14.299321498603833 0 134 7
3045 1023 4 0.4238 -12.190520687733228 -8.23582726908907 -18.244653851600084 0 0 -2
5548 1858 3 -0.8476 -7.675276474910826 -10.411575512614972 -14.74347653735878 0 56 -30
3652 1226 3 -0.8476 -11.225501835762621 -8.143644394031963 -11.832608557788303 -54 9 0
3653 1226 4 0.4238 -12.104489913572973 -7.701771600662047 -12.011852609992243 43 12 0
2169 731 4 0.4238 -8.20467664899831 -7.563646908614867 -13.274740555771452 0 1 0
770 265 4 0.4238 -9.051719896915833 -7.317511671661121 -18.219172326132615 0 -32 1
2167 731 3 -0.8476 -7.656616568870306 -8.36081962731376 -13.021470301202676 0 1 0
5535 1853 4 0.4238 -10.131256901148026 -11.73293916816608 -11.677263854992255 0 -49 28
2168 731 4 0.4238 -7.5685334788059695 -8.402178453866158 -12.026216140794258 0 1 0
3609 1211 4 0.4238 -10.871797694991338 -9.669018240220264 -12.395245493866605 0 0 47
1714 580 3 -0.8476 -9.691565596220896 -9.231306809582295 -18.783238821647362 7 0 -2
1715 580 4 0.4238 -9.5483783466553 -9.856130746722323 -18.015714406478345 32 0 41
2530 852 3 -0.8476 -7.098199179194416 -8.700021069907153 -10.335595592604996 0 0 11
5082 1702 4 0.4238 -10.3014811044065 -8.365405949649558 -10.353490897853796 -3 0 0
771 265 4 0.4238 -7.7131064427507745 -6.713837912514906 -18.933538147506898 0 10 -3
3671 1232 4 0.4238 -12.468367193852878 -6.6525006579698065 -14.404598997945413 0 1 0
5695 1907 3 -0.8476 -1.5109722872429043 -10.867572176622604 -16.26794880063339 0 0 0
1011 345 4 0.4238 -1.5762113721733224 -12.099909044364061 -18.465776598760073 0 0 42
1997 674 4 0.4238 -0.7528878856112993 -6.619550234940837 -13.622332014296392 0 11 0
2501 842 4 0.4238 -4.434423102876362 -8.027042227823639 -12.911147729912994 -25 4 36
4607 1544 4 0.4238 -0.26795642693475796 -12.704029797131518 -14.869270506382524 -44 14 0
1010 345 4 0.4238 -2.723179276394338 -12.896925903298142 -19.311859155128385 0 0 18
2357 794 4 0.4238 -0.7597016240959413 -12.026433069399022 -11.875542109078832 -24 43 -147
3489 1171 4 0.4238 -2.4842009746103755 -9.157348822535107 -18.27573135513421 0 0 0
2531 852 4 0.4238 -6.4025672068600175 -9.393014288874097 -10.52495392707918 0 -21 -7
4559 1528 4 0.4238 -3.9722434745036628 -11.426142895853536 -19.030944090953934 0 16 31
3513 1179 4 0.4238 -2.1801820621416477 -12.835871706553597 -14.0710452727883 0 35 23
2356 794 3 -0.8476 -0.4886154260267596 -11.49699979944873 -11.071668549572186 5 24 -18
4558 1528 3 -0.8476 -4.944136775466561 -11.250026149589653 -19.187169544872074 0 86 -6
3512 1179 4 0.4238 -3.137749391759201 -12.136272055417905 -12.948435372434275 0 -13 -57
3282 1102 4 0.4238 -3.339464178665043 -7.656634500793466 -10.772317836571126 0 114 12
4560 1528 4 0.4238 -5.433019136253402 -11.282032468050058 -18.31540712486942 0 -80 8
1879 635 3 -0.8476 -5.069181867282511 -10.681888818631759 -10.248686569689728 0 3 0
1880 635 4 0.4238 -4.444387116507195 -9.974735471606099 -9.917678898766452 0 -9 0
2500 842 3 -0.8476 -4.858502097497218 -8.701645024117122 -13.515357021276369 -32 -24 0
5624 1883 4 0.4238 -0.15122507391421947 -9.714245405243481 -10.906188374364568 0 25 0
2146 724 3 -0.8476 -4.893514123453736 -11.316228551761984 -12.773746991926622 0 43 2
4817 1614 4 0.4238 -3.1418633666727964 -12.695903919299216 -9.873421815297563 0 -10 0
4744 1590 3 -0.8476 -0.3920258994456121 -7.542890279779167 -15.068736132010219 0 0 5
5663 1896 4 0.4238 -0.543035570718585 -8.959811162355445 -18.590112517276065 -27 1 0
2148 724 4 0.4238 -4.99336294840955 -10.479140819196127 -13.311626490686645 0 7 7
2502 842 4 0.4238 -5.850331426693592 -8.574085113104486 -13.513289461504916 19 -22 -32
3487 1171 3 -0.8476 -2.2394149306447786 -8.438669356991849 -18.92656142826383 0 0 -2
5962 1996 3 -0.8476 -3.149817943712195 -8.861993126001495 -15.517880505338915 0 7 -16
3281 1102 4 0.4238 -2.3839066977583965 -6.77414376449652 -11.759610768798215 0 -129 15
5697 1907 4 0.4238 -0.7132005830999072 -10.419492414484266 -16.67141484141327 0 0 0
2147 724 4 0.4238 -5.753602916755185 -11.826173273682693 -12.78801856069443 0 21 14
5963 1996 4 0.4238 -3.693163776558527 -8.329645116507825 -16.167019116003537 0 25 -4
1009 345 3 -0.8476 -2.5605454580753366 -12.210391963298237 -18.60318247350877 0 0 46
5355 1793 4 0.4238 -4.783933424280601 -10.97242790230364 -16.079651504115933 -57 0 22
5964 1996 4 0.4238 -3.5911423439514207 -8.84454606132972 -14.620702478148141 0 -9 -120
5354 1793 4 0.4238 -6.410863618251992 -11.000360018107703 -16.21729081710099 -12 0 51
5625 1883 4 0.4238 -0.2849859119329336 -8.228666506268217 -11.570861658137433 0 23 0
4259 1428 4 0.4238 -1.9871500860210665 -12.519136194919879 -15.989148024479972 0 -12 6
5696 1907 4 0.4238 -2.197473028507971 -10.178947490984298 -16.03446904449535 0 0 0
5353 1793 3 -0.8476 -5.549856920843366 -11.259281410942425 -16.655043991116187 -45 0 69
3511 1179 3 -0.8476 -2.2036548718649076 -12.4236784701072 -13.16025043329585 0 -7 -15
1881 635 4 0.4238 -4.831498670193847 -10.922766127563309 -11.18968938905754 0 -7 0
438 154 4 0.4238 -5.203126146307161 -7.100205292840438 -17.892386099962515 -47 0 33
436 154 3 -0.8476 -4.416816027002381 -7.031352184325524 -17.27840262934051 -24 0 5
3280 1102 3 -0.8476 -3.32841385954659 -7.024932408661404 -11.547450961840921 0 -28 6
1738 588 3 -0.8476 -6.060133073248271 -6.956438792065367 -19.40670642228025 -59 -4 17
4746 1590 4 0.4238 -1.300554457558537 -7.848825710812112 -15.35330491469394 0 39 58
4745 1590 4 0.4238 -0.018593226774299712 -6.921606923102274 -15.757615741386017 0 43 34
437 154 4 0.4238 -3.6883792448970234 -6.513126472318332 -17.72653438030055 -44 0 -52
2533 853 3 -0.8476 -15.82365610690374 -16.762119124775683 -4.949445797271657 -11 10 2
2534 853 4 0.4238 -15.820946618659868 -17.188270966200733 -5.854093772769456 -9 97 -108
2535 853 4 0.4238 -16.458968314675904 -15.989868253865724 -4.946687510537222 0 36 120
478 168 3 -0.8476 -16.249271565610915 -17.963002868766303 -7.553605360241698 3 0 0
479 168 4 0.4238 -15.877927872689845 -17.387193270094958 -8.281992070941637 6 0 0
480 168 4 0.4238 -17.15203610446662 -18.299147424374514 -7.821976487355085 -5 0 0
4520 1515 4 0.4238 -17.01957472218816 -17.72799669325525 -3.2703522663771722 1 171 0
3362 1129 4 0.4238 -14.279789559354418 -17.33854905196225 -4.518807681648931 0 45 -8
4519 1515 3 -0.8476 -17.894233718941997 -18.104059226080015 -2.9644938966107808 1 43 0
4417 1481 3 -0.8476 -13.842891627409509 -17.527356003077074 -1.7927853493456187 0 21 0
4521 1515 4 0.4238 -18.09252806495427 -18.942309341292415 -3.47244738001025 1 -117 0
2008 678 3 -0.8476 -17.63150299671212 -14.186518481423157 -4.652054581273727 -15 -5 0
2009 678 4 0.4238 -17.67619814536596 -13.779427893557136 -3.7397609749387435 93 -41 -2
837 287 4 0.4238 -15.004432330733046 -18.729521400174058 -2.3728961423637287 -7 26 -51
2010 678 4 0.4238 -18.534659423997073 -14.531352359624488 -4.907785087083617 91 56 17
5671 1899 3 -0.8476 -15.139884210159819 -13.388371382798029 -7.7661259805035145 0 2 4
5672 1899 4 0.4238 -14.450982965591255 -13.967866949091649 -7.3306947231532495 0 -8 -4
2095 707 3 -0.8476 -18.661544614228294 -17.871239155429034 -0.22232629591576694 1 11 0
4418 1481 4 0.4238 -13.60966699810978 -16.6327680774911 -1.4115783893396558 0 -62 0
3361 1129 3 -0.8476 -13.387902638254667 -17.76329015181661 -4.363456973077388 0 24 -1
2096 707 4 0.4238 -18.638688257959814 -17.808176558390482 -1.220074275210714 9 -56 0
3103 1043 3 -0.8476 -18.981389501512275 -13.97123693656588 -2.2103740110729007 12 -25 0
4419 1481 4 0.4238 -13.502838186176607 -17.588721397226646 -2.7311871829109617 0 42 0
2827 951 3 -0.8476 -18.57908045732255 -19.215514758068956 -8.345469350421116 -61 -5 0
4500 1508 4 0.4238 -17.31154481231 -19.390949693881815 -6.1819742359812055 -26 38 0
4980 1668 4 0.4238 -13.399840667624288 -14.747646035880743 -0.17713400997850365 -4 0 0
4499 1508 4 0.4238 -16.045546352147667 -19.429794686778074 -5.151263017943596 53 -26 0
2828 951 4 0.4238 -19.132515884500766 -18.551575571143978 -8.848355075991932 36 -8 0
957 327 4 0.4238 -15.153347125846212 -19.38054664168253 -7.385706827038615 38 37 64
4821 1615 4 0.4238 -17.157517225594244 -19.21891093738569 -0.39693041776599175 5 -49 0
2417 814 4 0.4238 -13.118687705928126 -13.881548929088325 -5.26323248144029 -189 -49 0
3105 1043 4 0.4238 -19.301851354174342 -14.709803375291656 -1.617226072702115 34 -50 0
3104 1043 4 0.4238 -19.187930255294535 -13.089576947788002 -1.7860898786154595 -19 -11 0
5243 1756 4 0.4238 -13.105224569135764 -19.225696228851394 -7.225253539524569 -2 13 0
1178 401 4 0.4238 -15.81710324200044 -13.103031882393294 -9.36927531211036 -90 -15 0
1265 430 4 0.4238 -12.955300728689291 -14.201315483856375 -2.56897511163541 -22 0 0
1264 430 3 -0.8476 -12.910345782809767 -13.963368259494427 -3.539212712513512 5 -5 0
3363 1129 4 0.4238 -12.811131448095479 -17.63179909635004 -5.1697108494446935 0 -5 2
4811 1612 4 0.4238 -12.825015411030359 -18.631918565234653 -9.168210063142075 -3 -17 0
2416 814 3 -0.8476 -12.895482890279881 -13.829229204027307 -6.236598950278471 -16 32 0
4978 1668 3 -0.8476 -12.908871758687276 -15.203031901930778 -0.9198138122704892 -64 0 0
2418 814 4 0.4238 -12.553342365492842 -14.715699451683328 -6.548224330602072 -102 -157 0
5244 1756 4 0.4238 -11.502713070734279 -19.18709930005864 -6.913654942182684 29 -35 0
4979 1668 4 0.4238 -11.93534627678826 -15.250150605162675 -0.6961444542929558 131 0 0
5242 1756 3 -0.8476 -12.315157900128247 -18.629315476220217 -7.083391923669014 -1 14 0
3683 1236 4 0.4238 -11.576094087341517 -15.427524964989942 -8.148474185167917 37 7 47
3684 1236 4 0.4238 -11.674174929352622 -16.83273588831035 -7.322405838576995 69 57 -53
3682 1236 3 -0.8476 -11.38111415556349 -15.877716577336251 -7.277090007364313 -37 9 80
2054 693 4 0.4238 -10.080096901101236 -18.537806293748826 -2.991165962439216 5 -108 0
4484 1503 4 0.4238 -9.43422226073563 -14.988449701911154 -1.3322162479907829 0 -56 0
4483 1503 3 -0.8476 -10.062514333540882 -15.187918057815251 -0.5802445346994984 0 -35 0
5197 1741 3 -0.8476 -10.901802058990063 -15.8681061162074 -4.473803082318179 -18 8 0
5199 1741 4 0.4238 -10.875384491000839 -15.711669221444183 -5.461138039498491 -37 3 0
5198 1741 4 0.4238 -11.457226160413398 -15.159399812732346 -4.038785895675517 -10 33 0
2053 693 3 -0.8476 -9.595166021018928 -17.672214294759222 -2.8662957792911454 -3 -15 0
2055 693 4 0.4238 -10.071535909623535 -16.948282948508282 -3.3652899356690247 -30 -46 0
5562 1862 4 0.4238 -8.532456688293934 -13.464274298144474 -3.0307911608913503 -3 23 0
4334 1453 4 0.4238 -7.887193728699875 -17.597182047776172 -6.740527504976048 0 -22 0
4933 1653 3 -0.8476 -7.612115610402996 -14.625075270835566 -2.072256737214989 3 59 0
4335 1453 4 0.4238 -8.713087137159555 -18.244892961619065 -7.991526220983771 0 -11 0
4333 1453 3 -0.8476 -8.207962117054528 -18.449741052429903 -7.153142717177853 0 15 0
4935 1653 4 0.4238 -7.951507626994372 -15.5010837739498 -2.4149265956711163 -23 49 0
913 313 3 -0.8476 -9.786388037346805 -18.191726335450426 -9.311291669307677 17 12 0
3890 1305 4 0.4238 -7.616822497865683 -18.21803958286488 -3.0199492568498925 0 90 9
431 152 4 0.4238 -8.71955265302774 -15.189663191805606 -7.946635948617434 8 -8 -30
430 152 3 -0.8476 -8.353229808817927 -15.680383943513917 -8.737205823895556 8 -3 -20
432 152 4 0.4238 -7.419380721742115 -15.371630327491657 -8.917752527122147 -90 34 -67
4934 1653 4 0.4238 -6.748453232517655 -14.402314060774632 -2.5244357167847613 -54 -1 0
914 313 4 0.4238 -9.393949901374071 -17.27359785615263 -9.256214612379614 -7 18 0
3570 1198 4 0.4238 -8.779485464599768 -18.452848826071527 -0.6476062313917296 0 -12 0
2536 854 3 -0.8476 -12.203805466021576 -15.049706644148374 -9.581503965974811 53 0 35
3889 1305 3 -0.8476 -6.648103318297413 -18.026351598344572 -3.177552850850033 0 2 17
5832 1952 4 0.4238 -11.02143326839027 -19.393892452752972 -0.20006639655877123 76 -72 1
1731 585 4 0.4238 -7.131784090816624 -15.198257942195289 -0.28716759250315044 66 9 0
4140 1388 4 0.4238 -12.067558724791862 -17.486044136768726 -0.12056125661241 0 -42 28
4139 1388 4 0.4238 -10.494254746250101 -17.08552714429263 -0.2964233186037393 0 54 -17
2537 854 4 0.4238 -12.229328366004797 -14.052311843279435 -9.648975680893436 51 0 -91
602 209 4 0.4238 -6.551196117005445 -17.19445402389298 -4.718617206326765 -20 66 0
3573 1199 4 0.4238 -6.82314033086547 -19.47335449360106 -9.129794016830187 22 -50 -13
4485 1503 4 0.4238 -10.328253335074626 -14.33413181985829 -0.13254835868829 0 -28 0
3569 1198 4 0.4238 -7.702252471322675 -17.335694224016503 -0.1395105154860521 0 0 0
601 209 3 -0.8476 -6.474334226372911 -16.56846442768437 -5.494652166102433 6 -25 0
3891 1305 4 0.4238 -6.101488864461005 -18.81228010953037 -2.8885388311243347 0 81 -2
5889 1971 4 0.4238 -0.09095687527805904 -18.15023012389309 -4.448325455845449 0 4 0
603 209 4 0.4238 -5.58377554538057 -16.11428595049251 -5.469590855686314 96 44 0
5796 1940 4 0.4238 -3.6889721265881597 -15.681166249497977 -4.546250837349489 0 97 22
3834 1286 4 0.4238 -5.397224980238202 -17.170164121767833 -2.612364408841518 0 0 9
3833 1286 4 0.4238 -4.549759113301136 -16.06901745218607 -1.754514925064125 0 0 55
5795 1940 4 0.4238 -2.891956524855893 -16.167060772221788 -5.886138607439248 0 53 -101
3832 1286 3 -0.8476 -4.487379225178486 -16.913667490525487 -2.2861870578818975 0 0 66
5794 1940 3 -0.8476 -3.7876884498973213 -16.10709809278506 -5.445604995337943 0 -27 32
5716 1914 3 -0.8476 -1.060774196402344 -15.43429984375351 -6.11776214441011 -62 0 0
225 83 4 0.4238 -4.462676448214496 -16.915648148576427 -6.945925640705034 31 0 -16
223 83 3 -0.8476 -4.740634903203439 -17.265597650416115 -7.840507028895794 14 -7 2
224 83 4 0.4238 -5.179412255452382 -18.15712398220728 -7.728009017598051 39 50 -10
4366 1464 3 -0.8476 -2.891320191255495 -18.927956679751478 -1.770085500975324 -13 23 0
5448 1824 4 0.4238 -5.444735513610537 -15.935785968840758 -8.42328084840754 21 29 0
5446 1824 3 -0.8476 -5.7604785144238875 -15.075895055315435 -8.824396862511794 26 -3 0
2877 967 4 0.4238 -1.4216278644473122 -15.005135930833694 -3.089599877325078 -3 2 13
2757 927 4 0.4238 -3.7575963346288033 -13.732813262100127 -0.8535601259882049 -8 -16 0
4367 1464 4 0.4238 -3.570513134947938 -18.239877452137943 -2.0255145716753464 -26 132 0
5717 1914 4 0.4238 -1.1474262174485692 -14.819351295649849 -6.901554043786548 -43 0 0
2875 967 3 -0.8476 -1.8665176465080047 -14.375172170963673 -3.726167827789109 -3 -7 -7