LAMMPS data file via write_data, version 23 Jun 2022, timestep = 7500000

6078 atoms
4 atom types
4000 bonds
1 bond types
2000 angles
1 angle types

-19.881661219063506 19.881661219063506 xlo xhi
-19.881661219063506 19.881661219063506 ylo yhi
-19.881661219063506 19.881661219063506 zlo zhi

Masses

1 22.99
2 35.423
3 15.999
4 1.008

Bond Coeffs # harmonic

1 517.63 1

Angle Coeffs # harmonic

1 37.9505 109.47

Atoms # full

1435 531 3 -0.8476 -17.662557646887354 -15.601018331633448 -16.062728512372285 19 -4 15
5739 1965 4 0.4238 -18.964996502558037 -17.540128026082265 -16.72065814928875 6 71 117
1437 531 4 0.4238 -18.15130697434407 -16.079204093418717 -15.333028232200853 23 -6 -3
5737 1965 3 -0.8476 -18.9986686571551 -18.528467485913872 -16.572160582588733 -7 -40 -3
1436 531 4 0.4238 -18.194853626662148 -14.806700050904654 -16.355507400304482 74 -1 41
3096 1084 4 0.4238 -14.874666159639688 -18.24455121858386 -16.317478155358465 82 68 58
3094 1084 3 -0.8476 -15.110611164743753 -18.004225568582378 -15.37589743506935 -8 15 38
3095 1084 4 0.4238 -15.746349335861867 -17.232324197349687 -15.378227532341059 -58 -72 -68
1653 603 4 0.4238 -15.91559208798443 -15.005210244483234 -15.53244235898667 29 0 -11
1651 603 3 -0.8476 -15.14079018457948 -14.490351885228534 -15.899325871782903 29 0 -22
4232 1463 4 0.4238 -14.577102140925735 -19.18010219727366 -18.79254896876819 35 -28 -86
861 339 4 0.4238 -14.413791776258304 -14.39667650385671 -17.79083564937912 86 23 -39
1265 474 4 0.4238 -17.33358350554461 -19.517948594688924 -16.92475546205137 21 27 3
5738 1965 4 0.4238 -19.68704855547862 -18.73791882848144 -15.877707929408109 -80 -108 147
1813 657 3 -0.8476 -19.601304759977936 -16.484990917141285 -14.240499523951561 -5 0 11
3605 1254 4 0.4238 -15.425505326131418 -19.383028737803034 -14.30572297621032 23 -102 35
4231 1463 3 -0.8476 -14.131841684778427 -19.075434987539122 -17.903286396377343 -9 -23 102
859 339 3 -0.8476 -13.813356195649042 -14.678657489920486 -18.53914297344568 -4 2 19
860 339 4 0.4238 -13.341480250991536 -15.523654116353226 -18.287520612015395 -143 86 59
5759 1972 4 0.4238 -13.090436040270891 -17.649041138371448 -17.75977937316023 0 4 -28
5758 1972 3 -0.8476 -12.33017955765997 -17.01628333326881 -17.906847723972508 0 -1 -25
5760 1972 4 0.4238 -11.957383490430939 -17.150825594257775 -18.824955602627373 0 32 31
4948 1702 3 -0.8476 -10.029394871233311 -15.97174292689211 -14.650925256394501 0 14 -85
1184 447 4 0.4238 -12.187893495810894 -15.174640900022425 -16.326450440342153 6 -75 0
1183 447 3 -0.8476 -12.524034393685588 -14.966162603109591 -15.408002492647077 -5 -29 0
1185 447 4 0.4238 -13.447021390578202 -14.586217193300731 -15.469139976881007 -67 -121 0
4381 1513 3 -0.8476 -12.598898773487868 -18.82677056945747 -14.359567965032413 0 -86 -2
4383 1513 4 0.4238 -13.398661773332055 -18.386150773637535 -14.767286148509482 0 31 -31
3146 1101 4 0.4238 -9.517035248773306 -15.214380848367504 -16.66458341544838 4 5 81
3147 1101 4 0.4238 -9.130754833942087 -15.090588176950257 -18.246383179254188 -8 165 9
3145 1101 3 -0.8476 -8.796925499826243 -14.965140087900744 -17.312133603102797 7 21 27
4950 1702 4 0.4238 -11.005448663667067 -16.020447068793523 -14.862932774218223 0 -24 -42
4778 1645 4 0.4238 -9.164369546138616 -19.064645845499168 -14.938357434866628 8 7 -132
3024 1060 4 0.4238 -9.264375701114885 -19.175515609398566 -19.04065784204114 -5 -11 -25
4949 1702 4 0.4238 -9.714944082228874 -16.862165195932427 -14.321882632603723 0 31 222
3055 1071 3 -0.8476 -9.312396544633252 -15.673152800199597 -19.82465460138707 -15 12 -60
155 104 4 0.4238 -11.689215996436907 -19.819841700620753 -15.29775424836753 -27 19 -124
3022 1060 3 -0.8476 -8.706127025694364 19.86915292640022 -19.455260280058532 28 94 -24
3268 1142 3 -0.8476 -4.12343514620667 -18.245085358496194 -16.119437538105675 0 6 0
3270 1142 4 0.4238 -3.665032125847968 -17.855025048101695 -16.918011805829437 0 0 0
4431 1529 4 0.4238 -6.756779529876067 -17.566908405752965 -18.240917112579595 0 -56 -11
4429 1529 3 -0.8476 -6.735218663726545 -16.971185243627357 -17.438016479131676 0 36 2
4430 1529 4 0.4238 -7.3732498593850515 -16.21235679856038 -17.568769816767137 0 117 11
4456 1538 3 -0.8476 -5.951375365624665 -18.8878127852245 -19.36512171584993 0 5 11
1760 639 4 0.4238 -6.834936652568252 -17.214082845171816 -15.495165758708733 -23 -49 7
822 326 4 0.4238 -3.527879591822279 -16.206802604977508 -18.157824547310014 -47 87 11
820 326 3 -0.8476 -2.9568759768864044 -17.025922191311285 -18.212578628935677 33 -2 22
1759 639 3 -0.8476 -6.8514047383698395 -17.113966876171332 -14.500326263477982 7 -24 25
4756 1638 3 -0.8476 -4.834158092464459 -15.064579972746692 -18.131433015490057 0 -5 2
4758 1638 4 0.4238 -5.392541075023073 -15.822042676684731 -17.793114553903884 0 25 146
3269 1142 4 0.4238 -4.938124525901531 -17.70578218229451 -15.906285943382702 0 -8 0
4458 1538 4 0.4238 -5.816046344396344 -19.475442089933303 -18.56738817994447 0 54 136
821 326 4 0.4238 -2.90172300164429 -17.330836786993338 -19.163360018396343 36 -79 -17
2798 985 4 0.4238 -5.158262044710652 -19.705383770120495 -16.224615304852467 0 31 30
4757 1638 4 0.4238 -5.4000154038128 -14.455729290994505 -18.68740742105712 0 -58 58
3023 1060 4 0.4238 -7.849569862992333 -19.500262823372765 -19.78864863952118 73 2 -18
4862 1673 4 0.4238 -1.6707663880019161 -19.409594586218734 -17.137172139387 0 12 0
884 347 4 0.4238 -1.698877675862502 -16.979560899584598 -16.78838130105011 0 -229 31
885 347 4 0.4238 -0.6929445250830305 -17.41895791488141 -15.579391752889983 0 -6 -129
883 347 3 -0.8476 -0.8321083462541154 -16.776432886180025 -16.332914003571666 0 -40 62
2866 1008 3 -0.8476 1.5828885715044185 -15.90247589372824 -17.723627642066806 0 -89 8
2867 1008 4 0.4238 0.6537662860727899 -16.1613122333774 -17.459552752909108 0 5 33
2868 1008 4 0.4238 1.9899096416559034 -15.340851817115672 -17.003271983063563 0 102 -15
4920 1692 4 0.4238 1.382660527998408 -18.456378976960146 -16.972185514133233 109 25 116
4918 1692 3 -0.8476 1.7649041972648902 -19.295930479630286 -16.586124453929575 154 -4 41
4861 1673 3 -0.8476 -1.2930360427910292 -19.73817922481281 -18.00282335058365 0 20 0
2951 1036 4 0.4238 -0.6860021180430804 -18.737725642195805 -19.331498744628107 69 100 8
266 141 4 0.4238 1.7174024937254029 -14.76805353702358 -19.124903452471525 0 51 17
4919 1692 4 0.4238 1.4246980209986784 -19.41915367304717 -15.653881868730485 -226 -23 -155
265 141 3 -0.8476 2.1471842763382676 -14.246375570856108 -19.861883597885193 0 -36 15
3757 1305 3 -0.8476 -1.2503203616553447 -18.567423732413875 -14.25023158162639 0 6 -37
3758 1305 4 0.4238 -2.1431907863756363 -18.907376412277113 -14.545553305442022 0 -31 9
5313 1823 4 0.4238 -2.0753120123447526 -14.604529745837299 -19.83540650634271 0 -20 -78
1076 411 4 0.4238 3.182617060982782 -16.822652313491535 -17.609317366132892 0 5 83
1077 411 4 0.4238 3.5371159921557314 -17.921010626983346 -18.76455155035823 0 -15 -7
2569 909 3 -0.8476 4.3734163052980435 -16.988241457429186 -14.668103847415267 0 -32 0
1075 411 3 -0.8476 3.9070833853083085 -17.38810303183948 -18.00354324303772 0 1 31
5253 1803 4 0.4238 5.5768456916960325 -17.591527193281987 -17.976109709318884 0 -117 7
5251 1803 3 -0.8476 6.5275123524387295 -17.313702940370096 -17.838094328267747 0 -75 4
3007 1055 3 -0.8476 5.962478204789785 -15.305126925227466 -16.045386095461033 28 7 0
3008 1055 4 0.4238 6.18062735014797 -15.995429763537016 -16.735236090085916 -13 -61 0
3009 1055 4 0.4238 5.3150794838921716 -15.686376301877667 -15.385443754654242 14 24 0
3927 1361 4 0.4238 4.9089859865270755 -18.849061582620422 -16.126853775716096 0 -132 12
3925 1361 3 -0.8476 4.470178296305768 -19.742868785127392 -16.034352359081055 0 22 12
5252 1803 4 0.4238 6.9265106678006765 -17.043925197151054 -18.714462211643685 0 5 -29
3926 1361 4 0.4238 3.522481271245822 -19.682962788305176 -16.347851409462805 0 -93 -5
5937 2031 4 0.4238 7.296787383959332 -16.897849648402264 -14.493798646015437 -42 -13 0
5177 1778 4 0.4238 4.251807050226108 -19.63400144128599 -14.330289906643726 0 65 0
3831 1329 4 0.4238 7.100654995260596 -14.32777655206596 -15.418990407639336 0 -105 67
2570 909 4 0.4238 4.412989916091625 -17.9327207846687 -14.341923903265126 -18 -154 0
3462 1206 4 0.4238 10.42951895038185 -18.74102974091624 -15.68443977543365 22 65 61
2831 996 4 0.4238 10.768014276378176 -18.67542394082597 -17.905041244255855 -1 -20 0
2830 996 3 -0.8476 10.818292196324443 -19.297896437207218 -17.124016153221714 -1 29 0
1377 511 4 0.4238 11.168865087831366 -15.704664894329742 -16.425957013343716 0 34 0
1375 511 3 -0.8476 11.8375031912969 -15.634187114823321 -17.166198614472293 0 165 0
2302 820 3 -0.8476 10.227316646126477 -15.552196637944892 -15.136494369995106 -11 75 4
2776 978 3 -0.8476 11.189684734312346 -17.772724124706283 -19.29668124932824 7 -40 78
1376 511 4 0.4238 11.629309740356153 -16.314149596367066 -17.869268138411243 0 11 1
534 230 4 0.4238 13.314945161518214 -15.006239109089956 -17.930476963013547 21 30 -12
3460 1206 3 -0.8476 10.090200152526604 -18.313470283211164 -14.846552122269994 2 -33 0
3461 1206 4 0.4238 9.853284492402828 -17.359685885286794 -15.03139344353333 25 26 -74
2304 820 4 0.4238 9.439320566370972 -15.035866378994546 -15.471852777467516 -34 153 -82
2777 978 4 0.4238 11.922675693762582 -18.305204635060775 -19.719988226637334 7 44 52
878 345 4 0.4238 14.198791871356615 -19.5176408849311 -17.367149499335653 -36 -41 58
2303 820 4 0.4238 10.600008934237879 -15.101946518056543 -14.325091064318547 -42 -104 4
879 345 4 0.4238 12.724253777558388 -19.752707558407106 -16.706008017245768 83 -9 30
532 230 3 -0.8476 14.144736664586961 -15.012195269636523 -18.488518732260747 -10 -10 -70
2832 996 4 0.4238 10.0498052490664 19.826414793633827 -17.157069881620217 -1 -25 0
1229 462 4 0.4238 14.407036177378513 -19.604998381218213 -19.830259028432977 0 0 -65
1322 493 4 0.4238 18.85718469197401 -16.01120125396421 -18.88244255117996 33 -35 70
533 230 4 0.4238 14.745683887513813 -15.751337714355762 -18.184329811445682 0 -26 -142
5776 1978 3 -0.8476 16.270304063235393 -16.58549180432415 -17.49976637686062 -53 -64 66
5778 1978 4 0.4238 17.09668936584269 -16.07731074201376 -17.74233467419102 -152 123 -14
5777 1978 4 0.4238 16.323058972510886 -17.508780904498874 -17.880232094760558 115 62 22
6074 2077 4 0.4238 16.054980128884914 -16.15092486026592 -15.463658411113165 8 0 19
1321 493 3 -0.8476 18.50546902746439 -15.366336865309295 -18.203880080170332 -3 -15 17
1323 493 4 0.4238 19.26913501348604 -14.881245559136525 -17.777849715259126 54 95 95
6073 2077 3 -0.8476 15.705413832700113 -15.974601181530163 -14.543488114487618 -16 0 2
4306 1488 3 -0.8476 19.05040976839344 -19.12583459590955 -14.4162272489238 6 -10 0
6075 2077 4 0.4238 15.481374141743117 -15.004296627087205 -14.452299734945697 -27 0 1
3362 1173 4 0.4238 19.285227824743682 -18.360910975712176 -19.193903102561862 -45 18 -52
3361 1173 3 -0.8476 18.95150715690455 -17.614556808099366 -19.769738449912857 24 -38 -29
3383 1180 4 0.4238 14.557361274253726 -19.76234163354811 -15.087386264157175 0 -81 -20
1652 603 4 0.4238 -15.121965632777009 -13.578719815076639 -15.488748577613382 -56 0 92
5444 1867 4 0.4238 -18.995218667560856 -13.152385047975221 -17.43210630669938 58 0 6
5254 1804 3 -0.8476 -17.090679031076576 -10.21693199070305 -14.737950960647213 5 -2 2
2275 811 3 -0.8476 -14.983196629014634 -11.745408824973355 -15.115446940930441 -29 0 0
2276 811 4 0.4238 -15.833957393829737 -11.235559888418395 -14.987931237982762 2 0 0
3111 1089 4 0.4238 -17.87640967676177 -9.949032155495997 -17.115948989558834 -2 -74 65
3574 1244 3 -0.8476 -17.522400194822865 -12.381762491217971 -18.670056171241463 12 1 -4
3575 1244 4 0.4238 -17.008572828723512 -11.538067290488403 -18.825490648164084 -20 1 10
3576 1244 4 0.4238 -17.018410352799613 -13.154755011513073 -19.055383095049926 -36 3 -9
5443 1867 3 -0.8476 -19.61832012485206 -13.652782038943071 -16.83098368248409 34 0 0
2942 1033 4 0.4238 -15.419942237580425 -10.002841524441122 -19.327400806034284 11 26 26
3109 1089 3 -0.8476 -18.085156658264005 -9.050628417401834 -17.502336929986445 56 -39 19
3110 1089 4 0.4238 -19.075137171344114 -8.909424003537257 -17.501816720825023 -30 35 81
2557 905 3 -0.8476 -14.642862420603114 -9.149954073498517 -17.90250725043872 0 -3 -102
5255 1804 4 0.4238 -16.654744338316217 -9.379626604990456 -14.40797959090925 -77 -15 165
2277 811 4 0.4238 -14.407472579644113 -11.271780274205284 -15.781943625969006 -33 0 0
5256 1804 4 0.4238 -18.063774757093483 -10.198897432251202 -14.508255487776573 24 38 -62
2559 905 4 0.4238 -14.9266091568135 -8.562755384196487 -17.14442681310703 0 67 -2
325 161 3 -0.8476 -10.087546255708356 -10.668191436742053 -15.479860970460509 1 1 16
241 133 3 -0.8476 -10.306126839137004 -11.261494279454322 -18.46817158303419 -3 -6 -30
327 161 4 0.4238 -10.311382315668148 -10.754510423131286 -16.450657795748075 1 -1 50
243 133 4 0.4238 -9.651961886149966 -11.945338121626872 -18.791321428303306 -18 65 52
242 133 4 0.4238 -10.470207331219314 -10.589701946616895 -19.19050992601759 -25 -98 -32
326 161 4 0.4238 -9.351685962599735 -10.000779731062135 -15.365531328052208 1 1 68
3351 1169 4 0.4238 -10.596166662959867 -12.207607925770299 -14.611604806966914 12 0 -7
2115 757 4 0.4238 -12.503848054606157 -11.913130256583676 -19.193324395378845 -20 0 51
2558 905 4 0.4238 -13.645285377339322 -9.145863811574666 -17.971965694397227 0 80 -60
1248 468 4 0.4238 -11.084637643395006 -10.114977268117464 -14.417300332326025 41 0 -55
2550 902 4 0.4238 -11.372823508460938 -8.606259423837232 -18.28009067854501 64 0 36
3350 1169 4 0.4238 -11.29837814408945 -13.677487857883724 -14.497675809207218 -76 0 56
2114 757 4 0.4238 -13.36144217734014 -13.283812170187577 -19.422212827820328 173 0 -70
2113 757 3 -0.8476 -12.956030976581463 -12.489248427627617 -19.87421973737858 15 0 -69
4734 1630 4 0.4238 -8.92116782035047 -13.621556742499404 19.85188607295428 -1 15 21
3740 1299 4 0.4238 -7.806656664091669 -13.283591188554613 -17.099093349224738 -51 0 -2
685 281 3 -0.8476 -4.60827240388025 -12.976777850521351 -16.038860439977736 0 -21 -1
687 281 4 0.4238 -4.4399273753730695 -13.751321922938919 -16.648566469970696 0 125 28
3739 1299 3 -0.8476 -7.173780311105401 -12.684716379547552 -16.608362070861226 -30 0 -4
3741 1299 4 0.4238 -6.930270374325548 -11.908718357452363 -17.190196103692138 -19 0 -21
686 281 4 0.4238 -5.576958692040295 -12.730738726532103 -16.072201809896654 0 -100 62
1846 668 3 -0.8476 -6.456648883896444 -10.156580373547168 -17.81074439936157 0 0 -18
1848 668 4 0.4238 -5.909845573584184 -10.388677089202545 -18.615192830117188 0 0 -32
1847 668 4 0.4238 -7.097147879773195 -9.424573358762052 -18.04296583832257 0 0 -41
1133 430 4 0.4238 -7.712401868804966 -12.914763296096439 -14.925941273831343 0 -102 0
3370 1176 3 -0.8476 -6.1944701578857 -9.416169995141342 -15.044674890632253 1 1 -18
3372 1176 4 0.4238 -6.160161119066346 -9.950993394140461 -15.88894235092579 1 1 -7
3738 1298 4 0.4238 -3.316365688844098 -12.012456444770816 -15.992499640129333 0 -100 102
4588 1582 3 -0.8476 -5.771671272040735 -13.077625936660615 -19.75351961935832 -15 0 -10
4589 1582 4 0.4238 -5.3062896363791525 -12.22876388625594 -19.5028142814383 23 0 -85
4590 1582 4 0.4238 -6.760191042962425 -12.926643143948825 -19.759254809355312 -124 0 0
3279 1145 4 0.4238 -7.693042400604369 -8.672596739630245 -15.070711678767688 1 26 -164
3371 1176 4 0.4238 -6.454926126431507 -10.010622737717192 -14.283892264964804 1 1 -182
2888 1015 4 0.4238 -4.179059081768838 -8.674477678320946 -17.86614510118534 0 0 23
4732 1630 3 -0.8476 -8.463763029467325 -12.733650782721194 -19.86240697550344 -1 13 -36
3792 1316 4 0.4238 -1.1776637883581653 -14.152709774987997 -16.670600468270575 0 47 -41
3791 1316 4 0.4238 -0.6299656297015299 -13.998860208354651 -15.139919500032525 0 3 151
3790 1316 3 -0.8476 -0.6721736860963756 -13.564266966295545 -16.03955760961372 0 87 10
2635 931 3 -0.8476 -1.62637728470541 -12.905136896188298 -19.257641822210953 -59 1 11
3240 1132 4 0.4238 1.2973609372841202 -13.56910723092768 -16.24931960042037 0 -53 48
3736 1298 3 -0.8476 -2.433169778709575 -11.56218807378934 -15.861261540764449 0 23 -50
3737 1298 4 0.4238 -1.7032368778635523 -12.245066576725014 -15.89084099709224 0 -15 -36
94 84 3 -0.8476 -1.2805859484335316 -9.40702600643727 -14.96316625083673 0 0 -48
3238 1132 3 -0.8476 2.2619782836394573 -13.820509598826572 -16.169878063829817 0 -22 -9
96 84 4 0.4238 -1.896346445797966 -10.093700675625003 -15.34958175931677 0 0 -15
2734 964 3 -0.8476 0.3393558978625077 -9.330006411239046 -19.22931172145023 27 0 -3
95 84 4 0.4238 -0.9427170773512833 -8.813531329124993 -15.6936515020411 0 0 88
2636 931 4 0.4238 -0.649632677615592 -12.71588564345384 -19.156873809895163 -21 1 4
2637 931 4 0.4238 -2.1080993882067918 -12.058907654286509 -19.48532674254539 -17 1 11
2736 964 4 0.4238 1.0393278931615884 -8.637352398225884 -19.403293453956977 127 0 15
2735 964 4 0.4238 0.7240925627247977 -10.239530580057716 -19.386612373945972 49 0 42
4020 1392 4 0.4238 0.6613047060371802 -10.069701413436423 -14.49352203243564 0 -12 0
3239 1132 4 0.4238 2.7183586021883763 -13.195190979821817 -15.53687342312609 0 -28 -24
1170 442 4 0.4238 2.7279196372850736 -8.784337997705194 -14.310470331524852 0 0 -15
539 232 4 0.4238 -0.32859736106130716 -8.588950562952958 -17.76419684015125 0 1 19
3678 1278 4 0.4238 4.705047611590485 -14.058099226244384 -17.488663376963462 15 0 -47
3677 1278 4 0.4238 3.3134242820234245 -13.465939819586897 -18.104584132456083 -62 0 78
3829 1329 3 -0.8476 7.857241886154191 -13.766611084333169 -15.08332740210524 0 3 -34
3676 1278 3 -0.8476 4.3086589264995725 -13.479157980665908 -18.201196725790425 5 0 68
4149 1435 4 0.4238 5.647205875728707 -12.342723120712632 -18.26111624050894 -20 -95 0
4147 1435 3 -0.8476 6.104188426609532 -11.455698886375558 -18.19512401040334 6 0 0
4148 1435 4 0.4238 5.4237758569060714 -10.741661746300693 -18.030230990433616 -13 -5 0
5887 2015 3 -0.8476 7.9212254049998565 -10.729606849178127 -16.10087495009515 -18 40 0
5889 2015 4 0.4238 7.118719858496875 -10.792390300198328 -16.694207886005035 -3 -103 5
3830 1329 4 0.4238 8.09367336764781 -13.080111141682382 -15.77094502375832 0 25 35
1057 405 3 -0.8476 3.600361337518661 -12.231366649339021 -14.317384255061487 0 -60 -17
2693 950 4 0.4238 7.835209325924279 -11.66245571813175 -18.836194476017752 0 17 -21
5577 1911 4 0.4238 6.774276372873498 -10.589471062994333 -14.512698861656341 -16 32 46
2694 950 4 0.4238 8.375071063817698 -12.819588797624478 -19.854142826238558 0 14 42
1058 405 4 0.4238 4.499623547792974 -11.812274910903934 -14.442642439648575 0 -53 -46
3557 1238 4 0.4238 8.507284811516012 -9.497281891973957 -14.912182107166478 -46 0 0
5888 2015 4 0.4238 8.721856343745772 -10.4850910509606 -16.64786942136818 21 -73 -1
2692 950 3 -0.8476 8.647280996676624 -12.060141362238795 -19.26326093844803 0 13 17
5018 1725 4 0.4238 13.044003075500548 -11.698090849510944 -15.822472932056687 0 12 -14
5017 1725 3 -0.8476 12.214452442599507 -12.136704589494181 -15.476837407131383 0 -1 3
4372 1510 3 -0.8476 11.839068088495571 -9.747098800118422 -18.47964901504936 41 -31 108
4374 1510 4 0.4238 12.506891431443524 -10.042975868817612 -17.796663831254282 -13 -23 74
3212 1123 4 0.4238 11.779534188010649 -10.417136008427667 -14.746805042853861 -43 0 -7
5019 1725 4 0.4238 12.418543568173039 -13.081955219727625 -15.22218436852391 1 121 -4
4373 1510 4 0.4238 11.457962832981526 -10.547779696156544 -18.941892361715784 46 -25 -60
3556 1238 3 -0.8476 9.074742685976537 -8.934218589404843 -14.311389579619128 -53 0 0
1602 586 4 0.4238 10.3683073802093 -11.924647021046356 -19.62013577892498 0 1 -136
4496 1551 4 0.4238 10.479550158635224 -9.078430079227571 -17.955448953030402 0 2 -183
3213 1123 4 0.4238 10.620952481110244 -9.332681599425904 -14.361741941026914 -79 0 -24
3211 1123 3 -0.8476 11.605759789930953 -9.505950901179524 -14.373248905716686 11 0 15
4495 1551 3 -0.8476 9.623663394175496 -8.745585659778378 -17.559630209110576 0 1 -44
1142 433 4 0.4238 13.999201637823322 -9.382320714866786 -17.235354917169957 -15 0 -217
1141 433 3 -0.8476 14.096464225804063 -10.282005677086792 -16.809787608156466 -8 0 -106
1143 433 4 0.4238 14.766846067673203 -10.229888605953859 -16.06960299347314 -16 0 97
5445 1867 4 0.4238 19.573669118866594 -13.003848183199594 -16.328525965656226 -64 0 23
5831 1996 4 0.4238 17.887265436604586 -13.564820850746042 -18.6126942526864 -114 9 63
4971 1709 4 0.4238 14.521033240898372 -11.548200104615459 -17.774729166164864 72 44 43
698 285 4 0.4238 19.144657627080335 -10.9292112711911 -15.111502378186906 19 52 0
4970 1709 4 0.4238 14.69323386136267 -13.07870175931314 -18.317442846856576 -32 -27 -101
697 285 3 -0.8476 18.59326531923881 -11.265726608266045 -15.8748667614018 10 8 0
699 285 4 0.4238 18.67780116089561 -10.638471315133499 -16.64907922609349 -22 -5 0
4969 1709 3 -0.8476 15.039182200530933 -12.143191944855191 -18.389144657492142 38 -6 -36
2401 853 3 -0.8476 16.235129539364074 -9.688416717201132 -19.105129104238593 -6 0 -3
4707 1621 4 0.4238 18.339558203073583 -10.028374202325292 -18.955738382632212 -5 5 -19
2403 853 4 0.4238 16.362985440842984 -9.280063446163263 -18.20130319659493 -79 0 -103
2402 853 4 0.4238 15.684014595236873 -10.518581755781398 -19.020875204683914 91 0 34
5832 1996 4 0.4238 16.718554732333175 -12.44243133327213 -18.815139298244343 -157 -115 -38
5897 2018 4 0.4238 16.78393334714509 -11.151591479483008 -15.32313401241488 28 17 0
4705 1621 3 -0.8476 18.92011483375972 -9.357343720329515 -18.494573998842707 -42 -7 -20
5830 1996 3 -0.8476 17.599320718538387 -12.774190194755109 -19.15305669090313 -26 33 9
5896 2018 3 -0.8476 15.877663407537678 -11.075517231660326 -14.907336558620242 18 43 0
5898 2018 4 0.4238 15.821654123535595 -10.22567975171064 -14.383276221214466 -57 33 0
4212 1456 4 0.4238 18.25262122258504 -13.715813181759165 -14.269456433010012 -12 71 -2
5547 1901 4 0.4238 15.13698097484106 -12.661148715006798 -14.344655537477522 140 0 -3
3972 1376 4 0.4238 -17.956626688943423 -8.185946182092248 -19.171644858591847 -15 -25 47
3995 1384 4 0.4238 -16.54924180635793 -7.126853493972003 -15.859929658570149 0 0 -10
3996 1384 4 0.4238 -17.36524290403102 -7.489809937645325 -17.227054863608572 0 0 14
3994 1384 3 -0.8476 -16.898444161770378 -6.762878076088563 -16.723399195540615 0 0 13
3053 1070 4 0.4238 -16.04432968722299 -4.999436504216843 -18.912516773508116 276 -96 -54
3052 1070 3 -0.8476 -15.581515134392388 -4.773671555016619 -18.05529281523186 -53 31 -6
3054 1070 4 0.4238 -15.99821405767735 -5.288305944266658 -17.305950779384016 92 19 57
148 102 3 -0.8476 -19.01828307090122 -5.306360773815363 -15.054071087839223 -40 0 45
149 102 4 0.4238 -18.29856766091475 -5.666329692277211 -15.647731166290837 -67 0 27
2170 776 3 -0.8476 -15.416883017343654 -7.802025684886788 -14.6309019357543 11 -46 26
150 102 4 0.4238 -18.633372189193985 -4.610202424413179 -14.44809461425125 27 0 -133
5337 1831 4 0.4238 -15.250321961057926 -3.0646914457872154 -18.182505864719847 -36 0 6
2171 776 4 0.4238 -14.463176441602691 -7.556311430958433 -14.804304089137053 -58 -163 3
2604 920 4 0.4238 -8.54983470212385 -8.073660125138947 -16.914741884508246 20 1 0
3277 1145 3 -0.8476 -8.633336893278269 -8.333557455798582 -15.100711762541831 1 -46 107
2548 902 3 -0.8476 -12.092857209716271 -8.242090934257385 -17.689385093688852 21 0 2
5096 1751 4 0.4238 -11.985588083276342 -6.608904472786831 -14.946526631735301 0 3 -45
779 312 4 0.4238 -13.71390788522639 -5.378867453408833 -18.15220980935891 0 0 -98
5076 1744 4 0.4238 -12.301684287183296 -5.104414029314143 -16.6041622985059 0 0 104
5095 1751 3 -0.8476 -12.725641156001817 -7.279218528744134 -14.891745866508613 0 -2 -43
2549 902 4 0.4238 -12.291529649884499 -7.297250859656891 -17.949783766119925 51 0 131
778 312 3 -0.8476 -12.739261865457411 -5.5831085557253814 -18.243592088644263 0 0 73
4195 1451 3 -0.8476 -9.243183506046483 -5.6091625111783445 -17.997765735643 20 0 -60
4196 1451 4 0.4238 -9.216742137757274 -5.063854570426789 -17.159946630681965 -90 0 80
4197 1451 4 0.4238 -9.039729184131108 -5.024099096619868 -18.782818403128417 -15 0 -86
4609 1589 3 -0.8476 -9.518133594552467 -4.108899609395733 -15.69618281007465 0 3 70
4611 1589 4 0.4238 -10.469936324628291 -4.406753215431379 -15.623006120376582 0 16 60
780 312 4 0.4238 -12.414539340103808 -5.266687453226368 -19.13490179487879 0 0 -159
5074 1744 3 -0.8476 -12.100932167053662 -4.587020838270133 -15.772294070787767 0 0 -16
4610 1589 4 0.4238 -9.461248758801682 -3.322854146709169 -16.311728644319484 0 -4 67
5075 1744 4 0.4238 -12.861887613061278 -4.679946056991834 -15.130178841380939 0 0 -25
2603 920 4 0.4238 -8.807558111178837 -7.307833170631894 -18.333795871127382 -50 1 -2
3421 1193 3 -0.8476 -8.591925493582645 -3.498917042510858 -19.786193484506697 0 0 -41
5097 1751 4 0.4238 -12.33827886640815 -8.199041364384266 -14.829477171445347 0 76 -39
3194 1117 4 0.4238 -8.304968414853464 -4.104343716909211 -14.457135383504033 0 45 0
2602 920 3 -0.8476 -8.440300807972783 -8.134189723692081 -17.90688024594028 3 1 0
2887 1015 3 -0.8476 -4.2571542331720185 -7.875929170087249 -18.46298811020961 0 0 0
2889 1015 4 0.4238 -5.135197227525211 -7.424861553642016 -18.30305080950199 0 0 -4
4972 1710 3 -0.8476 -5.605927285393776 -5.259844343319088 -15.371723502285098 -13 0 -39
4973 1710 4 0.4238 -6.372231820993127 -4.79290918888849 -14.930417959033434 80 0 -96
4974 1710 4 0.4238 -5.801412779193528 -5.373907178666832 -16.345774650595498 -77 0 -22
742 300 3 -0.8476 -6.22467171130862 -6.0554501198823445 -18.103131482629305 0 39 20
743 300 4 0.4238 -7.076517341979536 -6.532431397179241 -17.88668696098974 0 52 -143
744 300 4 0.4238 -6.431415162595939 -5.213844402593791 -18.602087959829547 0 -5 -76
1353 503 4 0.4238 -4.186853080484666 -4.879648658738774 -14.90915498539429 28 0 -55
1351 503 3 -0.8476 -3.296365390657515 -4.731577830115551 -14.478914643971041 32 0 -2
3220 1126 3 -0.8476 -5.948048866039487 -3.667679290482479 -19.396488146434205 0 0 23
3422 1193 4 0.4238 -7.609221656749665 -3.6607250813238315 -19.69613032009244 0 0 -27
3222 1126 4 0.4238 -5.606898000602291 -3.3194762618946094 -18.52334968433769 0 0 10
3714 1290 4 0.4238 -3.0536771437343653 -2.9253235707938927 -19.678625512507168 0 0 39
291 149 4 0.4238 -2.892939909829716 -5.964246860428137 -17.573664015139904 0 0 11
3689 1282 4 0.4238 -3.18332954014057 -7.575872331663572 -19.873206894498804 0 0 -93
1352 503 4 0.4238 -2.7369669327690245 -4.144488941442538 -15.06406420667104 34 0 -54
290 149 4 0.4238 -2.031153835020853 -4.592487208182432 -17.368172203256343 0 0 19
540 232 4 0.4238 -1.0044928337858838 -7.121515421047545 -17.526653946951285 0 1 -8
289 149 3 -0.8476 -2.0297204608533406 -5.503628735091849 -17.780264642133222 0 0 -6
538 232 3 -0.8476 -0.4025070896832843 -7.816495816174736 -17.1334413987634 0 1 21
3119 1092 4 0.4238 0.8791243379692975 -7.213353417145244 -16.167806434618456 -24 0 -16
5087 1748 4 0.4238 1.0148594448267085 -5.319553806010477 -16.42064272744426 0 0 43
5086 1748 3 -0.8476 0.6987085919383763 -4.662009328716356 -17.104516927822626 0 0 33
5088 1748 4 0.4238 -0.127154611479708 -5.011994699728137 -17.54662576042942 0 0 11
3118 1092 3 -0.8476 1.3249513489864895 -6.714784645261455 -15.424389377883454 0 0 -10
818 325 4 0.4238 2.628267183799071 -4.007014842646977 -17.451175172695507 0 0 150
3120 1092 4 0.4238 2.0846665176603416 -7.258167559034352 -15.067221030622214 -24 0 27
2863 1007 3 -0.8476 -2.315136311719136 -3.0207376979757545 -16.488978872426262 0 -18 -17
1109 422 4 0.4238 2.416611337903717 -6.579776091928734 -19.383748765356497 0 0 -62
3690 1282 4 0.4238 -2.4171826509217667 -6.161988998406579 -19.58934185317074 0 0 61
4854 1670 4 0.4238 0.616442471710504 -2.8791540101921864 -16.9571568972561 0 0 -72
4934 1697 4 0.4238 -0.2121605438426749 -2.898300080516365 -18.985459947367435 0 18 89
3611 1256 4 0.4238 6.29718489870486 -7.858533896739482 -18.499672359202947 -37 57 -70
3612 1256 4 0.4238 4.835238931509995 -7.974510928599141 -19.217927227304777 -25 34 89
3610 1256 3 -0.8476 5.340308763128943 -8.116789595875685 -18.366656549795373 -34 -18 -64
1021 393 3 -0.8476 7.910061964624416 -7.989101930890753 -19.38902417790448 0 0 -3
2607 921 4 0.4238 4.569823862468973 -7.013854499600919 -17.128405097464263 26 0 94
2606 921 4 0.4238 4.0499550850073796 -6.954985624560382 -15.581505807518877 38 -12 -153
4701 1619 4 0.4238 6.089743995086126 -6.252566758102833 -16.284512495855545 0 -1 -114
2605 921 3 -0.8476 4.355953897266805 -6.408937431194432 -16.361375109115766 -17 5 20
817 325 3 -0.8476 3.617524347000037 -3.87834874059052 -17.381778712531883 0 0 7
4699 1619 3 -0.8476 7.0335809752369824 -6.038047220694764 -16.03320825245779 0 -4 101
819 325 4 0.4238 4.018016174293877 -4.6409853910885035 -16.873848732531957 0 0 43
4700 1619 4 0.4238 7.053028568961764 -5.648589569505265 -15.112368642150152 0 13 -95
3261 1139 4 0.4238 6.8296683546635135 -3.35060601867194 -18.361941419451348 -1 -52 -33
3260 1139 4 0.4238 5.253314899248131 -3.5373663398473214 -17.978721464937163 -1 27 -124
3259 1139 3 -0.8476 5.910019549913267 -2.9771970934759286 -18.483647616604614 -1 -38 22
1050 402 4 0.4238 4.339711929915738 -3.058896232641805 -19.618479447965143 -35 0 -50
4388 1515 4 0.4238 8.54926537276847 -4.857416759929458 -19.688118403472238 1 0 100
1168 442 3 -0.8476 3.378846261852727 -8.02521864545059 -14.316160745653573 0 0 -18
2232 796 4 0.4238 8.20669541089895 -4.930579600968105 -17.12047005605325 0 0 -209
1023 393 4 0.4238 8.460878719160787 -8.242948042184045 -18.59393731244795 0 0 0
2230 796 3 -0.8476 8.573128496747573 -4.270246044096993 -17.775974757041194 0 0 -29
2231 796 4 0.4238 9.247640925690463 -3.6885301917477795 -17.321398392629355 0 0 106
4497 1551 4 0.4238 9.82443711577779 -8.059670336861634 -16.860194647495028 0 1 169
3687 1281 4 0.4238 12.584919144406546 -8.31863199160775 -14.452522909737473 -7 -88 5
2555 904 4 0.4238 11.573762117500555 -7.04789131024347 -15.733876689838564 -18 0 50