LAMMPS data file via write_data, version 23 Jun 2022, timestep = 7500000

6024 atoms
4 atom types
4000 bonds
1 bond types
2000 angles
1 angle types

-19.669244867604224 19.669244867604224 xlo xhi
-19.669244867604224 19.669244867604224 ylo yhi
-19.669244867604224 19.669244867604224 zlo zhi

Masses

1 22.99
2 35.423
3 15.999
4 1.008

Bond Coeffs # harmonic

1 517.63 1

Angle Coeffs # harmonic

1 37.9505 109.47

Atoms # full

1400 483 4 0.4238 -16.010806526484778 -18.235726684345448 -14.464525619369232 0 -52 -2
499 183 3 -0.8476 -16.619236419856158 -14.915600432360728 -18.403591096113296 31 0 -24
501 183 4 0.4238 -16.481681077489863 -15.902421077031157 -18.488825810063048 -5 0 -28
1924 658 3 -0.8476 -16.872606052808084 -18.271184933227982 -15.95282902970548 67 -24 -19
500 183 4 0.4238 -15.859973330113355 -14.516392877855461 -17.88963269763315 -46 0 -9
1925 658 4 0.4238 -16.926693362261496 -17.810477835012335 -16.8387317832556 -3 31 3
1926 658 4 0.4238 -17.088679014106948 -19.240789531332275 -16.067631502042765 62 78 20
2868 972 4 0.4238 -18.382147945502616 -17.469833594602914 -14.585246173212452 -39 -12 58
4256 1435 4 0.4238 -15.287645408963945 -13.807786693816835 -14.619973287333773 45 0 -50
750 266 4 0.4238 -16.454564870071923 -18.53277565188942 -18.882905055403523 -15 11 -18
4255 1435 3 -0.8476 -15.20604371074158 -13.684289438559311 -15.608957419726778 -48 0 54
3203 1084 4 0.4238 -18.11799309255163 -15.35126671008702 -17.058896891458026 40 -4 43
1399 483 3 -0.8476 -15.698191291014433 -18.041451449194103 -13.534724706153371 0 12 40
748 266 3 -0.8476 -16.21531654551033 -17.568698680229794 -18.76751068449206 23 -10 2
749 266 4 0.4238 -15.223549940760085 -17.460825441124584 -18.83652089284374 47 60 8
3202 1084 3 -0.8476 -19.073146547860663 -15.170144063790337 -16.824639602423122 -14 37 13
2409 819 4 0.4238 -17.488430378161315 -13.473020874169135 -18.253555514152765 168 0 167
2866 972 3 -0.8476 -18.77478521204637 -16.565995322365037 -14.415208471539891 65 5 70
2867 972 4 0.4238 -18.77112661287934 -16.036089168948802 -15.263257449529748 144 -1 -15
1401 483 4 0.4238 -14.881114057307913 -18.583287108173604 -13.337749705335641 0 53 23
3246 1098 4 0.4238 -19.485576394007303 -17.788244250858526 -19.421369041020757 36 10 12
3244 1098 3 -0.8476 -18.91094320539042 -16.978481754368126 -19.54003557889056 24 -39 17
5003 1684 4 0.4238 -14.073841576998174 -19.656573435640095 -15.624821034389306 0 9 18
3204 1084 4 0.4238 -19.56816000644232 -14.880731374533909 -17.643908785588753 45 31 -27
3245 1098 4 0.4238 -17.94837017660564 -17.249487602464782 -19.53697622292466 13 -89 -46
5891 1980 4 0.4238 -13.977080821948263 -14.952493491717247 -16.066084034713352 16 0 1
5890 1980 3 -0.8476 -13.34743898116939 -15.403393488797372 -16.69873018376417 -12 0 1
5892 1980 4 0.4238 -12.46872045710699 -15.552013160231226 -16.24511576325553 -7 0 22
946 332 3 -0.8476 -11.7974426219199 -18.49362340437688 -14.957108710774227 -1 37 0
948 332 4 0.4238 -12.432017078354043 -18.778368440083298 -14.238613355767185 5 -2 0
3866 1305 4 0.4238 -13.327049569376209 -16.479533328218 -18.12342435624946 0 18 -6
3865 1305 3 -0.8476 -13.497650744738399 -16.93091646461614 -18.999294512570465 0 -29 5
3416 1155 4 0.4238 -11.978317198172022 -18.142482288342826 -18.904172415936575 72 -4 94
3265 1105 3 -0.8476 -10.409139767726613 -16.318799269934953 -15.306495770614777 -3 7 10
3266 1105 4 0.4238 -10.990142965171826 -17.130111212221163 -15.371367052986281 -68 18 27
3415 1155 3 -0.8476 -11.11063623537942 -18.629343156818692 -19.004652587038784 -15 -62 22
77 42 4 0.4238 -9.754865096172686 -17.460377126836036 -18.365561518642682 4 114 3
3267 1105 4 0.4238 -10.404544858420023 -15.986676291251866 -14.363270855147608 10 18 -5
76 42 3 -0.8476 -9.204933655060243 -16.830762507730785 -17.81678027237384 0 -20 -5
78 42 4 0.4238 -9.683453458073586 -16.62808949466561 -16.96241356619279 8 97 -31
4602 1550 4 0.4238 -9.455463231359511 -13.85459813969364 -18.758840948886068 0 -31 115
4126 1392 3 -0.8476 -11.172821429847222 -13.468127862273434 -19.40552111721261 -53 0 -9
947 332 4 0.4238 -11.042983294994105 -19.147515810328343 -15.013817764799965 -12 8 0
4600 1550 3 -0.8476 -8.58874935176285 -14.317868315991022 -18.573941464982436 0 -17 24
4601 1550 4 0.4238 -8.767890652251417 -15.26175534292747 -18.296478478195574 0 -26 51
3417 1155 4 0.4238 -11.168079903261859 -19.51244061558416 -18.538992721038298 8 -29 15
2093 714 4 0.4238 -13.013333521134333 -13.380362456433234 -15.912638798853195 -15 0 19
2045 698 4 0.4238 -7.585346491707151 -13.98098581968762 -17.020957091255617 -27 -5 -8
3948 1332 4 0.4238 -7.1783006201874135 -17.08174265697607 -14.914648405367139 19 -7 3
2046 698 4 0.4238 -6.666121134914607 -14.760710249627977 -15.919285153520905 10 -21 81
2044 698 3 -0.8476 -7.022010579713849 -13.870039087354174 -16.202212020485455 -24 -2 12
3946 1332 3 -0.8476 -6.477773706832676 -16.398956843591296 -15.122172983893245 -31 6 -33
4052 1367 4 0.4238 -7.923949781645082 -17.322055770362073 -18.851298733466393 10 1 39
4051 1367 3 -0.8476 -7.150579500223912 -17.88507977825591 -19.142680166922613 3 17 21
4244 1431 4 0.4238 -5.7781848619423535 -17.14114259501389 -16.36150534886904 0 96 87
4243 1431 3 -0.8476 -5.264101711938885 -17.787727105655236 -16.925107171985893 0 48 -36
4245 1431 4 0.4238 -5.781053892439064 -17.989008398806984 -17.757120572399316 0 60 -64
3947 1332 4 0.4238 -5.763973065507277 -16.430492136182707 -14.42253353056107 67 4 39
5416 1822 3 -0.8476 -7.311330018079976 -18.786952779971823 -13.536678430317894 0 15 36
4647 1565 4 0.4238 -4.084808352915229 -18.748811864932623 -16.213176077622865 3 -117 0
3958 1336 3 -0.8476 -4.472667134903908 -17.32090058611664 -13.312075846335988 0 35 -7
4645 1565 3 -0.8476 -3.5386226612754283 -19.498478771539258 -15.839437144184307 -3 -77 23
5417 1822 4 0.4238 -6.439964979231435 -19.21718060310555 -13.300823729914457 0 9 -3
3960 1336 4 0.4238 -4.494314875921381 -18.311695117628915 -13.445708131203041 0 13 0
4395 1481 4 0.4238 -2.4474598632745153 -14.126087876817301 -13.530036439526008 0 0 -13
4904 1651 4 0.4238 -2.3690953298747695 -17.650463128198947 -14.08661710664227 0 -30 -3
4512 1520 4 0.4238 -2.320723981188384 -13.750953825279778 -18.740609088002646 1 42 -3
4510 1520 3 -0.8476 -2.3257935582820344 -13.579246503049411 -17.755473647927527 1 14 9
4903 1651 3 -0.8476 -1.3862710289790117 -17.554969991596998 -13.928699142075855 0 -32 6
4905 1651 4 0.4238 -0.896270859125965 -18.260117391653854 -14.441210350869829 0 -37 -54
2350 800 3 -0.8476 -1.3291460643045514 -16.002339666068497 -16.3821162014987 -39 15 -2
2351 800 4 0.4238 -1.577831638750573 -15.06594630818565 -16.62975205939912 -11 65 2
2352 800 4 0.4238 -1.4713956578849965 -16.136728179872275 -15.401450632368482 -48 71 -1
2919 989 4 0.4238 -1.3730038041360189 -17.054389936800202 -17.73248655570582 4 0 -76
2917 989 3 -0.8476 -1.5954814577959897 -17.831179241981033 -18.321640267503945 -3 -45 4
2918 989 4 0.4238 -2.3503541474310086 -17.58346867510865 -18.928934842161606 4 -8 -4
560 203 4 0.4238 0.19514748838784035 -18.605073329993786 -18.77978481381607 -1 43 63
559 203 3 -0.8476 0.9733136729497852 -19.232964602986552 -18.79427529983354 2 -16 -6
4406 1485 4 0.4238 1.517423984014779 -18.852850732176336 -17.13658492267559 4 7 0
2546 865 4 0.4238 -0.37362907986254257 -14.349026616345897 -14.57840248107038 0 -7 23
2545 865 3 -0.8476 -1.1282372623295909 -13.69297829288285 -14.565471653128265 0 -4 -10
4407 1485 4 0.4238 1.7215634887987887 -19.222065675273818 -15.559044066924496 1 4 0
4405 1485 3 -0.8476 2.132640065974426 -18.772874011830343 -16.352293040593164 0 6 0
5334 1794 4 0.4238 2.771690644925578 -14.072723268473815 -14.415576619604725 -16 31 28
4757 1602 4 0.4238 2.6968603574922283 -18.688404318180723 -18.77422151332747 0 103 0
3843 1297 4 0.4238 1.2153144410437342 -15.453761485856024 -13.139143420140346 0 -4 -128
5332 1794 3 -0.8476 3.071459593785811 -14.969310449067734 -14.089584831674504 4 -6 -37
5333 1794 4 0.4238 3.215357720569032 -15.576947050661555 -14.870655996936504 0 1 13
3558 1202 4 0.4238 3.116324077412385 -17.317620388330315 -16.4985911337046 20 -21 48
3556 1202 3 -0.8476 3.7623662383829775 -16.573279429965396 -16.329516917019 -9 16 11
5992 2014 3 -0.8476 8.04828365499038 -14.845741847173866 -14.079168185719743 -36 0 0
3557 1202 4 0.4238 4.673556618359945 -16.952768673697452 -16.169142289086867 -3 21 30
670 240 3 -0.8476 4.648911773964399 -15.789822436357701 -18.84507936320472 0 -70 -3
672 240 4 0.4238 4.3730326387528935 -15.919442665108605 -17.89266645653077 0 -76 -114
1779 609 4 0.4238 6.108315616681486 -18.407640648000214 -14.788990038743812 0 -47 -64
1777 609 3 -0.8476 6.448304149180176 -17.97883887207768 -15.625970836542292 0 1 -5
671 240 4 0.4238 5.635267929613057 -15.630806286651268 -18.887693154034444 0 57 21
1778 609 4 0.4238 7.1439873114245565 -18.564644542177515 -16.04173120353003 0 16 -50
1767 605 4 0.4238 7.186920107463265 -14.04253956143065 -15.373437960898755 0 0 19
4758 1602 4 0.4238 3.8739414133239323 -17.56348585905725 -18.649056354520344 0 -68 -41
4756 1602 3 -0.8476 3.6142605044057263 -18.42946507256126 -19.076427476536917 0 -21 15
1765 605 3 -0.8476 6.722862072899493 -13.564657240053487 -16.119279292947894 0 0 -6
1766 605 4 0.4238 6.895099287544445 -14.043475225423816 -16.98013235882035 0 0 -32
2599 883 3 -0.8476 7.259213760452805 -14.53344377102725 -18.84732710792382 0 0 15
2600 883 4 0.4238 7.892020677644908 -15.227638503113207 -19.190327266623715 0 0 -49
2601 883 4 0.4238 7.7527658008390175 -13.67635533020467 -18.699659241442852 0 0 34
5994 2014 4 0.4238 7.830708772450831 -14.99918034126649 -13.115260597949092 -22 0 15
1292 447 4 0.4238 4.736453680084155 -19.519866840771424 -13.239825453425864 0 60 58
5993 2014 4 0.4238 7.832675623552847 -15.668778265707394 -14.604643440957334 -26 0 0
1291 447 3 -0.8476 5.358292329540658 -18.73677723196206 -13.249172741158816 0 -22 -2
721 257 3 -0.8476 8.501634044963167 -19.448730443551927 -16.401612264049625 4 33 0
1932 660 4 0.4238 9.645793783952973 -17.901396110336787 -17.22427161469689 0 0 10
1931 660 4 0.4238 11.235905259958775 -18.02064303225151 -17.576340824927836 0 0 -45
1930 660 3 -0.8476 10.449512333096155 -17.403476275603435 -17.550021400624075 0 0 17
866 305 4 0.4238 13.206477884917946 -18.30385437443871 -15.945043133948875 0 -1 0
865 305 3 -0.8476 12.878240378095265 -18.500097755222367 -16.86902845312461 0 0 0
117 55 4 0.4238 10.51056961968345 -15.80319019411768 -17.44795705055966 0 18 0
115 55 3 -0.8476 10.589337289338234 -14.813076492747642 -17.33189419343022 -15 0 0
116 55 4 0.4238 10.744227282870945 -14.60188740559466 -16.36679923560452 -67 -2 0
4627 1559 3 -0.8476 13.053975373707535 -14.763659491552705 -18.689788987127333 19 0 54
4629 1559 4 0.4238 12.06216211501337 -14.854510440481905 -18.600049214767424 16 0 56
4923 1657 4 0.4238 12.31711876091747 -14.100876047219709 -13.761823516538222 -17 0 59
4628 1559 4 0.4238 13.497993716965548 -15.138131143661298 -17.875774258471175 21 0 -50
5812 1954 3 -0.8476 10.70130400090817 -13.626413749211393 -14.235507790770795 -1 51 0
5814 1954 4 0.4238 9.749771827142215 -13.932010587428213 -14.200894929847319 -62 -7 0
867 305 4 0.4238 13.597547529216985 -18.287597755893938 -17.53042233339064 0 -2 0
4922 1657 4 0.4238 13.402645546901521 -15.276017484708571 -13.434255620720824 -64 0 6
2430 826 4 0.4238 9.435877677089133 -16.89632562194139 -19.39921470039563 0 -26 -96
580 210 3 -0.8476 11.983139618425799 -18.617804451691512 -13.298524172256274 14 0 0
5693 1914 4 0.4238 13.17794661356246 -17.483565170942935 -13.391221570344225 0 -24 22
4921 1657 3 -0.8476 13.132113749866635 -14.334857574834272 -13.231695375679411 -4 0 1
5692 1914 3 -0.8476 13.867464383457165 -16.77629314092282 -13.547207329731663 0 63 -42
2141 730 4 0.4238 19.32042862956938 -15.493155009208698 -19.567113778760454 -1 -26 -6
3210 1086 4 0.4238 15.621478617188357 -16.26681389283948 -16.56538078417196 37 11 103
5694 1914 4 0.4238 14.669361364108907 -17.183265341075696 -13.984625782976854 0 -108 -33
3209 1086 4 0.4238 15.762516404380456 -15.488550573904686 -17.994030863638066 -26 -4 -7
3208 1086 3 -0.8476 15.11794469473833 -15.821848461215739 -17.305961206730366 -13 -7 -19
2252 767 4 0.4238 18.472870795904054 -15.899232716385534 -16.289702415409803 -12 -94 22
2440 830 3 -0.8476 16.935084151069457 -14.924484841623944 -14.040250631741696 0 -32 -3
2251 767 3 -0.8476 17.62975390915307 -16.42783744263148 -16.388348191179094 6 81 39
2253 767 4 0.4238 17.84276742149674 -17.4043251036446 -16.35522457654244 -11 37 -159
2983 1011 3 -0.8476 15.68184419915279 -18.261882661693825 -14.858749886576947 0 -27 -32
844 298 3 -0.8476 14.77027124053636 -18.036306222338872 -18.74438353286795 57 -49 0
2984 1011 4 0.4238 16.367079233095016 -18.66847960590707 -14.254488424962759 0 8 1
2985 1011 4 0.4238 16.056792072954437 -18.182941622533217 -15.78242862458286 1 -6 -26
2441 830 4 0.4238 17.014948240363697 -15.504799975508242 -14.850717581894479 0 -58 1
846 298 4 0.4238 14.804461871026891 -17.07691507185094 -18.464382146192225 26 18 109
2442 830 4 0.4238 17.717056704427794 -15.084023434392424 -13.437700456142968 0 23 -1
1051 367 3 -0.8476 18.222688613009122 -18.931102192330503 -16.132976637745116 3 16 -26
3161 1070 4 0.4238 17.532458639567157 -13.889093273437696 -17.78131206061099 35 -54 -32
5895 1981 4 0.4238 15.654361173427235 -13.585810342128877 -14.518488682714164 13 -8 81
2140 730 3 -0.8476 18.971668859794164 -14.601125519422645 -19.279624522041747 -12 17 3
1053 367 4 0.4238 19.10568996132276 -19.326912660731733 -16.38525174915279 73 -9 -80
2870 973 4 0.4238 17.240791202231076 -15.047723862472221 -19.274974464377518 12 -1 1
2869 973 3 -0.8476 16.34333350312369 -15.325652973893881 -19.617503605475772 40 0 -26
4490 1513 4 0.4238 14.190706680515337 -13.292978706245094 -19.064577863569028 -16 82 61
5076 1708 4 0.4238 15.90805125906151 -19.48522227965395 -19.02124839923612 19 45 -65
233 94 4 0.4238 19.316451121394447 -16.758057389931732 -13.28394791008202 14 140 -12
845 298 4 0.4238 14.36660649787924 -18.10303431592385 -19.656854391409283 44 120 -91
3184 1078 3 -0.8476 19.259417640355878 -19.64041540642173 -19.27562761600329 27 46 9
1052 367 4 0.4238 17.570364515481803 -19.66498763670898 -15.943541897019564 -7 -40 -110
4257 1435 4 0.4238 -15.878828524618497 -13.011872572134981 -15.91752857984575 82 0 -31
1207 419 3 -0.8476 -16.995425796030702 -11.420623298594723 -15.738055969411873 28 0 0
1209 419 4 0.4238 -17.607471563335174 -11.439885472994856 -14.947468235803195 -50 0 -5
1208 419 4 0.4238 -17.501396628060977 -11.688688228968191 -16.557894202488814 -14 0 31
4583 1544 4 0.4238 -15.201397823373563 -7.62186345014233 -15.391770698801215 45 -19 -46
2407 819 3 -0.8476 -17.7423707132002 -12.505917182687817 -18.238562707357868 21 0 19
5403 1817 4 0.4238 -16.041231937360426 -9.869231295743925 -15.574075338087528 34 0 0
5401 1817 3 -0.8476 -15.199965119801025 -9.364883276175991 -15.379387787290643 15 0 0
5402 1817 4 0.4238 -14.932718748263715 -9.517087178419008 -14.427855670247569 -6 0 0
1004 351 4 0.4238 -18.63439205819252 -7.48804754498789 -13.524604828125197 -45 0 18
4823 1624 4 0.4238 -16.619892815877886 -7.867683217167629 -19.32820103216038 81 22 13
4832 1627 4 0.4238 -18.892068995757644 -7.480314161661555 -16.979642318106986 1 18 -35
5635 1895 3 -0.8476 -14.865766133576914 -10.687387009460236 -19.30235063316211 31 49 -26
5637 1895 4 0.4238 -15.182226060896596 -9.74332691979672 -19.395106767827144 -29 -52 7
1005 351 4 0.4238 -18.93517071054385 -9.058186356731847 -13.857508073352541 13 0 51
2408 819 4 0.4238 -17.89781726301773 -12.187585678714306 -19.173710521046992 39 0 3
4582 1544 3 -0.8476 -15.131892357412164 -6.627944350214655 -15.477179167477873 -15 3 19
5636 1895 4 0.4238 -14.958576957723968 -10.977993087339904 -18.350019669705514 43 14 29
2305 785 3 -0.8476 -19.273427899236108 -10.717318501498385 -14.412163682635615 1 0 -58
1003 351 3 -0.8476 -18.965205391837294 -8.353578602257972 -13.148546085822446 0 0 51
3353 1134 4 0.4238 -19.61897429608863 -11.656322820190615 -17.703566511235213 5 28 48
4831 1627 3 -0.8476 -18.502286447805204 -6.561801362273465 -16.913280947580137 0 10 -7
1205 418 4 0.4238 -8.74564507154829 -13.032028393196802 -15.96267969778552 0 10 15
2094 714 4 0.4238 -12.32797274849699 -12.868067016769693 -14.521789942260037 15 0 11
3794 1281 4 0.4238 -13.645223092642757 -10.137736050483305 -16.499257685028454 36 -42 -46
2092 714 3 -0.8476 -12.295554739148706 -12.805821297590324 -15.519324248789905 8 0 -25
3795 1281 4 0.4238 -12.480920743144123 -11.276162831017974 -16.37673404778893 -1 64 -34
3793 1281 3 -0.8476 -12.692021226050624 -10.356515927900817 -16.70792486781868 -4 -16 -11
1204 418 3 -0.8476 -9.517527687345705 -12.403014515019528 -16.05508781654069 0 -42 1
1206 418 4 0.4238 -10.372992207665545 -12.920653976506951 -16.03990818805597 0 68 -11
3489 1179 4 0.4238 -10.875579697869638 -9.109174295800582 -18.541937834404884 0 -66 56
79 43 3 -0.8476 -9.722941085199738 -7.557967116641938 -16.441050141803547 0 20 -60
80 43 4 0.4238 -9.673070097724061 -7.98819005740886 -15.53970588021777 0 42 -54
81 43 4 0.4238 -9.62269260163865 -8.256336397606148 -17.149732637158603 0 -14 -167
3487 1179 3 -0.8476 -11.813742717192701 -8.778735063398441 -18.64518570262761 0 -38 24
3488 1179 4 0.4238 -12.416473067155822 -9.289798066765371 -18.032380011523564 0 13 29
3380 1143 4 0.4238 -9.785383687499063 -11.108313260116118 -17.20156500945748 0 -17 -30
3379 1143 3 -0.8476 -9.814789280778768 -10.321283122232423 -17.81777836600902 0 -11 -9
2992 1014 3 -0.8476 -11.921820990193144 -9.239325595539782 -14.269232536607877 9 0 0
2993 1014 4 0.4238 -12.191216530300181 -9.586956881316075 -15.167330042314438 16 0 0
5232 1760 4 0.4238 -8.622803856061168 -11.129961616039468 -15.221939012012621 0 -13 71
3381 1143 4 0.4238 -8.891874936286431 -9.954203826767685 -17.933890096879164 0 -17 62
2994 1014 4 0.4238 -12.636780572661783 -8.635054376887329 -13.917537568506045 -30 0 0
3804 1284 4 0.4238 -12.528832674402448 -6.575260335749553 -18.10583964537464 28 0 -54
4754 1601 4 0.4238 -11.430457522028899 -6.732808971914565 -16.178603140872898 1 -4 0
4511 1520 4 0.4238 -2.900807076008054 -12.78516853897769 -17.55849657447279 1 49 14
279 109 4 0.4238 -5.985946189095256 -12.623410163215715 -18.552133027080064 0 -74 -32
3270 1106 4 0.4238 -7.459466851214889 -7.888412144863539 -18.859829642757305 0 12 11
1641 563 4 0.4238 -5.829080788829855 -12.605659351860481 -15.5219506525922 0 3 10
5230 1760 3 -0.8476 -8.043921201960615 -10.647677357774931 -14.564445207499459 0 21 10
5670 1906 4 0.4238 -6.700491357212943 -9.298618319319054 -17.332127153684755 -27 -45 -77
5669 1906 4 0.4238 -6.973576458887599 -10.220700589680668 -18.651905662262134 28 -41 -6
1640 563 4 0.4238 -4.7808205849402166 -11.355482561875341 -15.591489735497527 0 -2 14
5231 1760 4 0.4238 -7.103372330577919 -10.978069948984274 -14.643247352985405 0 24 -97
1639 563 3 -0.8476 -5.5140613523418 -11.777512151806215 -15.058338491154085 0 0 -9
5668 1906 3 -0.8476 -7.307870371125365 -9.447939814374422 -18.11237957793921 -29 2 -47
277 109 3 -0.8476 -5.880897737047241 -11.743368896621242 -19.015266216600754 0 44 29
5494 1848 3 -0.8476 -4.877765816971807 -8.375174149559879 -16.78641334751141 3 0 2
5495 1848 4 0.4238 -4.348456166932689 -7.654700471568634 -16.338363083296347 46 0 -15
1952 667 4 0.4238 -4.595898474444806 -8.872556280975864 -15.119276495702094 0 0 64
5496 1848 4 0.4238 -4.549426574822523 -8.496484293877486 -17.72315093529969 10 0 2
1951 667 3 -0.8476 -4.6193180295146465 -8.843331658856014 -14.119977583222544 0 0 -21
2358 802 4 0.4238 -4.2851603953280915 -10.229176631021792 -17.225838999753858 -30 5 0
2356 802 3 -0.8476 -3.6318670959636914 -10.930061184957466 -16.93953720017958 -11 1 0
5090 1713 4 0.4238 -7.552682869033372 -9.230936815750132 -13.669152905590238 -25 0 50
5089 1713 3 -0.8476 -7.141856211276529 -8.384413710155643 -13.33059698338139 23 0 94
3268 1106 3 -0.8476 -7.429127419944186 -6.999385681548087 -19.31667915635868 0 18 21
5352 1800 4 0.4238 -3.391294736687325 -7.404179775969507 -19.205646683047807 0 0 -67
5350 1800 3 -0.8476 -3.867639787740125 -8.283211163059637 -19.225627969777182 0 0 -5
5961 2003 4 0.4238 -4.423729775052604 -7.03705406822282 -13.858923224184558 0 0 3
1953 667 4 0.4238 -3.8401914895434714 -9.3517715034369 -13.753301639236339 -1 0 -81
5091 1713 4 0.4238 -6.165087008315485 -8.379029307705498 -13.544823413556665 -88 0 29
1911 653 4 0.4238 -5.674515053325299 -12.002637334815617 -13.26482066312641 -18 0 13
278 109 4 0.4238 -5.120572664538369 -11.796083659614515 -19.662667484998266 0 109 -55
4274 1441 4 0.4238 -0.6309600063772272 -13.05625655680849 -17.869512029001054 0 91 -42
2357 802 4 0.4238 -2.7007086934748683 -10.60578822884163 -17.10624382859222 41 63 0
4275 1441 4 0.4238 0.4627160595372668 -12.491567682043609 -18.942650247125194 0 49 -70
4273 1441 3 -0.8476 0.1512868828010588 -12.445748365311527 -17.993486146044873 0 -25 -26
2547 865 4 0.4238 -0.8404476900399441 -12.845114442015488 -15.010786250193247 0 -2 -144
3863 1304 4 0.4238 1.5913789657455748 -12.973625961829045 -16.464366294491885 0 113 -23
1666 572 3 -0.8476 -1.0522616460747565 -9.985814270301688 -17.916479782292186 -1 3 -55
1667 572 4 0.4238 -0.5456429532275566 -9.35124015216666 -18.50013482502495 -1 -1 19
1668 572 4 0.4238 -0.6010793077162508 -10.878214185234416 -17.92402406277362 -1 -1 -18
489 179 4 0.4238 0.551353375376734 -11.94698011651093 -14.359222092668993 0 11 11
487 179 3 -0.8476 -0.1434978056866148 -11.361871022895299 -14.77734792206035 0 -14 -19
488 179 4 0.4238 0.2098832894639015 -10.984132605886796 -15.63317238498782 0 -30 -33
3000 1016 4 0.4238 1.6198093505905338 -7.552848667445802 -17.439905442222265 -22 7 -69
3862 1304 3 -0.8476 2.049507715221161 -12.813773065481625 -15.589971860839302 0 -9 34
1044 364 4 0.4238 -0.08174063265186286 -7.6054005594702 -14.292912015470602 8 -1 46
85 45 3 -0.8476 -1.275804287082716 -7.70742495006481 -16.349253917973563 0 0 -2
5473 1841 3 -0.8476 1.7842444015438124 -9.605307887543987 -16.563099811493466 0 0 58
87 45 4 0.4238 -0.8793831286381709 -8.560740255047667 -16.68793315792827 0 0 20
4791 1613 4 0.4238 -1.7293405569291902 -10.599767748830425 -13.842516888109134 -95 -26 0
5474 1841 4 0.4238 2.157943710047046 -9.80679241548506 -15.657697637867164 0 0 28
2998 1016 3 -0.8476 1.2714312926207068 -6.93499009765139 -18.144805464026373 15 3 69
5475 1841 4 0.4238 2.414933443472941 -9.936011126813696 -17.26514450610705 0 0 -49
86 45 4 0.4238 -1.4894406561595124 -7.109451727813156 -17.121774213992122 0 0 -10
1042 364 3 -0.8476 0.23541382898597008 -6.81212436964954 -13.773175186249384 -16 -1 -34
2379 809 4 0.4238 2.2339915372945582 -7.499480281640742 -13.231816739684454 0 0 0
1308 452 4 0.4238 2.6294753550004217 -10.834754020466576 -13.15606402549631 0 -13 -69
4789 1613 3 -0.8476 -2.4192765450591334 -10.596992762948876 -13.118651097020773 -74 -20 0
3864 1304 4 0.4238 2.9922946728210045 -12.524447137472539 -15.755634707876002 0 -98 3
1306 452 3 -0.8476 3.0624490456592453 -10.361933217131021 -13.923510635563199 0 -12 -2
1307 452 4 0.4238 3.5166248447365915 -11.029852748462101 -14.513093416878819 0 -23 -28
3674 1241 4 0.4238 4.881992605281761 -10.762317082441065 -16.414102407626423 0 0 -68
3675 1241 4 0.4238 5.204875750228153 -12.361264962062037 -16.338348407670626 0 -108 -4
3673 1241 3 -0.8476 4.589090313859367 -11.637041409940874 -16.02801219794214 0 -36 -21
2470 840 3 -0.8476 5.4417966538351275 -9.296851544469328 -16.91198251565277 0 -28 4
2472 840 4 0.4238 5.304786596890084 -8.460066396086207 -16.38187034261477 0 -19 -24
2471 840 4 0.4238 5.210189893469352 -9.126353458307934 -17.869734426288776 0 44 5
3460 1170 3 -0.8476 4.899648440512451 -7.26583464502891 -15.337409327435138 0 -25 6
254 101 4 0.4238 7.289040484394777 -10.268469859214571 -15.956390483734266 1 -47 0
3462 1170 4 0.4238 4.325554826365902 -7.184297154872953 -14.522689415506585 0 90 -45
776 275 4 0.4238 5.77324283045252 -10.601240213347323 -13.97124022375823 -12 0 -4
5536 1862 3 -0.8476 8.31312723013773 -9.014702189872478 -18.9194565668051 1 12 -5
5538 1862 4 0.4238 7.968423471081386 -8.079472463007722 -18.83868092252777 1 -10 7
777 275 4 0.4238 7.1786456686735045 -10.206840575666948 -13.239175819717715 26 0 35
3702 1250 4 0.4238 4.1599083932888785 -7.871415119702766 -19.53321466897342 0 0 17
253 101 3 -0.8476 8.253496292756202 -10.244981675493124 -16.219589662945037 1 32 4
2378 809 4 0.4238 3.201586591392411 -8.799611876577247 -13.431927093436126 0 0 0
5537 1862 4 0.4238 8.30546307965247 -9.451611518392644 -18.01998365420873 1 14 78
3700 1250 3 -0.8476 4.182071012755667 -8.867266761438804 -19.621471944987274 0 1 12
5273 1774 4 0.4238 9.634554789523046 -13.079055449767422 -17.96003229737922 0 0 -36
255 101 4 0.4238 8.821828006138945 -10.19081493277817 -15.39857438273754 17 37 55
5274 1774 4 0.4238 8.898970286813253 -11.788649104717996 -17.28150866543721 0 0 19
5813 1954 4 0.4238 10.735566479208925 -12.678149534511794 -14.551135991337564 -3 -4 0
5272 1774 3 -0.8476 8.970455149358981 -12.346300751801088 -18.108500364955223 0 0 -11
2124 724 4 0.4238 11.372344476161368 -7.990067150566034 -13.975315238133037 48 0 137
2122 724 3 -0.8476 10.388517658651486 -7.950015897169865 -14.149905788888704 -39 0 98
2123 724 4 0.4238 10.000411727841973 -7.151962076029071 -13.688945657014711 22 0 88
268 106 3 -0.8476 12.844385948648881 -10.761551453650085 -17.916690105400694 0 0 -67
270 106 4 0.4238 12.646511040668734 -11.03497170699135 -16.975368211308183 0 0 2
5128 1726 3 -0.8476 8.824183616393121 -10.095402234552546 -13.539023913356564 0 24 0
4210 1420 3 -0.8476 13.250825700809033 -6.769971945934701 -16.67258231403848 0 0 -20
1102 384 3 -0.8476 13.10047569359165 -11.234509120373817 -15.108321431781421 0 0 0
1103 384 4 0.4238 12.958170916901798 -10.492892928386441 -14.452764340079744 0 0 -9
5130 1726 4 0.4238 9.344537797841394 -9.246912516797286 -13.635451876459424 0 -68 8
434 161 4 0.4238 11.742697432930882 -9.854805796380937 -18.83053016022003 41 0 -153
4212 1420 4 0.4238 13.496026742120833 -7.400404878701977 -17.40908134564256 0 0 -41
1104 384 4 0.4238 13.938987851248234 -11.727741525128161 -14.87676239501064 0 0 -4
5339 1796 4 0.4238 10.483734761290547 -7.172941698556321 -16.193201959441854 0 0 -39
269 106 4 0.4238 13.476834261664772 -11.4176712588926 -18.32841325883639 0 0 49
6005 2018 4 0.4238 13.707656221231046 -9.242555578427735 -18.395342752875848 3 0 9
3814 1288 3 -0.8476 12.842694885188399 -8.843411079780031 -13.2876349585268 -18 -66 -27
5338 1796 3 -0.8476 10.076026129301516 -6.595399650592193 -16.900463727905137 0 0 -3
3815 1288 4 0.4238 13.535489758886786 -8.152524069674767 -13.494299971878055 -67 37 54
433 161 3 -0.8476 11.112942033326936 -9.302580405068248 -19.376842235273177 17 0 -24
435 161 4 0.4238 10.195457291016933 -9.355247173482539 -18.982572673345526 11 0 -24
6004 2018 3 -0.8476 13.989482832764601 -8.293037967437112 -18.53314725716875 6 0 2
4211 1420 4 0.4238 13.867773634565236 -6.906733974692749 -15.89755238027469 0 0 -2
2307 785 4 0.4238 19.44508533764538 -10.722145492449048 -15.1967696570556 -1 0 71
2306 785 4 0.4238 19.64125899092888 -11.205868311754747 -13.6494639507932 -64 0 10
3160 1070 3 -0.8476 17.014021222708468 -13.105180022317438 -17.439694103411078 12 -14 10
3162 1070 4 0.4238 16.278013362779614 -12.887409726185242 -18.080685340218647 61 66 -29
5894 1981 4 0.4238 15.861308387156532 -12.85795380088024 -15.96556304253314 -62 -35 1
5922 1990 4 0.4238 19.132639738996886 -9.621519020399385 -17.22701786695321 -3 0 -46
5893 1981 3 -0.8476 15.6205890383992 -12.713244539841606 -15.005816488878812 0 -31 -42
3352 1134 3 -0.8476 19.026710456045908 -11.309717313462397 -17.071201200900926 2 14 -58
4489 1513 3 -0.8476 14.76121090668941 -12.475214992281176 -18.988495438182873 14 -22 -19
5920 1990 3 -0.8476 19.324288078566703 -8.675939148684558 -17.48998106512476 -5 0 -11
3354 1134 4 0.4238 18.20248455795881 -11.871908362406884 -17.138972249936607 -12 -5 109
1373 474 4 0.4238 15.338904961534803 -9.608684136361584 -14.309956449732056 -3 0 0
1374 474 4 0.4238 16.275689161161623 -10.850286236353549 -14.807436368051917 -9 0 0
1372 474 3 -0.8476 16.279266806388467 -9.936174185458686 -14.401989568362117 16 0 0
4885 1645 3 -0.8476 16.42145543642571 -7.501317097918404 -17.242682700769024 28 0 1
4887 1645 4 0.4238 16.35590257022914 -7.900767722282881 -16.32827462969371 -82 0 -6
4886 1645 4 0.4238 15.557083402238934 -7.634834092263386 -17.72748655513691 -83 0 16
5921 1990 4 0.4238 18.5268429360494 -8.29104846951013 -17.95467496124699 9 0 55
5860 1970 3 -0.8476 14.884578826059775 -7.06626730743389 -13.920915122191605 13 21 0
6006 2018 4 0.4238 14.293039642439934 -8.169212590978702 -19.477880322925223 46 0 9
4137 1395 4 0.4238 17.154282913567233 -8.787884522683534 -13.258732269150745 -74 16 -22
5862 1970 4 0.4238 15.631876592975859 -7.494726720498214 -13.413008656941864 32 -23 0
4833 1627 4 0.4238 -18.133362783692604 -6.421861994362197 -15.994416247671616 0 -46 52
4584 1544 4 0.4238 -14.169314130313804 -6.357923405171502 -15.454105277463007 69 -5 175
230 93 4 0.4238 -17.048477469299957 -5.858621108211745 -14.422706523337776 8 0 27
229 93 3 -0.8476 -18.013588777876766 -6.120110972304059 -14.409146870258809 -54 0 9
231 93 4 0.4238 -18.56556968227888 -5.3419770361554955 -14.109437260722595 4 0 -45
4330 1460 3 -0.8476 -18.477683401864756 -2.2514971979282015 -15.936466313443255 -6 0 14
2186 745 4 0.4238 -18.99200404085554 -3.103386092287744 -14.578006322067926 18 -80 1
4331 1460 4 0.4238 -17.496137245685013 -2.4304502764869977 -15.869058431211378 5 0 -19
673 241 3 -0.8476 -15.07074945038929 -4.262312903895066 -18.411894112322376 0 0 37
4332 1460 4 0.4238 -18.775698192777483 -2.3798194459326734 -16.882363391247257 -89 0 6
3195 1081 4 0.4238 -18.101060580109824 -1.3428547556530805 -19.244210155099516 73 -3 -12
3193 1081 3 -0.8476 -18.0428449414295 -0.34590746875046974 -19.192180529644645 65 -52 30