LAMMPS data file via write_data, version 23 Jun 2022, timestep = 7500000

6048 atoms
4 atom types
4000 bonds
1 bond types
2000 angles
1 angle types

-19.78309312557742 19.78309312557742 xlo xhi
-19.78309312557742 19.78309312557742 ylo yhi
-19.78309312557742 19.78309312557742 zlo zhi

Masses

1 22.99
2 35.423
3 15.999
4 1.008

Bond Coeffs # harmonic

1 517.63 1

Angle Coeffs # harmonic

1 37.9505 109.47

Atoms # full

1997 698 4 0.4238 -15.039455872577244 -18.197352807663233 -15.993509215043485 0 -83 0
3043 1047 3 -0.8476 -16.160982176216745 -19.3466726517963 -18.132406733885215 8 -31 -16
3045 1047 4 0.4238 -15.479055362153838 -18.90037911841842 -17.552925534236422 -26 20 148
3044 1047 4 0.4238 -16.780894165847545 -18.657996411871068 -18.508484693760437 -122 18 106
3016 1038 3 -0.8476 -16.13246572876398 -18.495894311894567 -14.843978763847351 -24 9 0
5194 1764 3 -0.8476 -17.037232869489003 -14.464083998586009 -15.428734598374147 4 0 0
3202 1100 3 -0.8476 -15.339393177698547 -15.774769698640132 -19.450536642866265 4 -1 -6
3203 1100 4 0.4238 -14.873278526020497 -15.417190475094243 -18.64129363279307 17 -1 -43
5196 1764 4 0.4238 -17.160037110274526 -14.925146403030038 -14.549905487919204 110 0 0
3017 1038 4 0.4238 -16.676544482689863 -17.659985683417798 -14.771624785429998 61 114 0
2414 837 4 0.4238 -15.492972210763623 -15.102132082903939 -16.61668837216832 -2 0 -125
3067 1055 3 -0.8476 -18.161831744699665 -17.73329765055642 -19.31878103313933 73 -2 -3
2413 837 3 -0.8476 -14.498901621662496 -15.157845799185587 -16.71007096000954 -8 0 14
1996 698 3 -0.8476 -14.314948102931162 -17.936524694281957 -16.631519587721833 0 -7 0
3069 1055 4 0.4238 -19.076688981771998 -17.374449023705118 -19.503889387031258 -122 -10 -11
2682 926 4 0.4238 -16.65672910516735 -14.722054458645092 -19.519290797006196 29 -84 55
1998 698 4 0.4238 -14.261668478928215 -16.93942208522818 -16.685812311073157 0 -54 0
3068 1055 4 0.4238 -17.48442694152815 -17.013568920212833 -19.47081263197398 77 -3 83
867 321 4 0.4238 -19.611258061376173 -19.424201593857173 -14.711258963212158 42 21 0
2680 926 3 -0.8476 -17.540724664072904 -14.301595738238124 -19.723658977382225 17 -27 77
2415 837 4 0.4238 -14.065128428747503 -14.663756210640713 -15.956601015468127 26 0 36
111 69 4 0.4238 -12.46666465965303 -18.330397296677617 -17.067153436011754 31 0 -48
109 69 3 -0.8476 -11.840187367003372 -19.02305161972078 -17.424584397386646 -8 18 -34
3861 1319 4 0.4238 -11.398088681159631 -15.357790160319263 -19.564796782309728 0 34 -12
391 163 3 -0.8476 -10.763414817949409 -16.98010815671102 -19.102076190198837 0 16 0
393 163 4 0.4238 -11.265701284760802 -17.8148284533449 -18.876353114164193 0 44 0
1407 501 4 0.4238 -9.96242937897557 -16.155402090623294 -17.687276557421736 0 8 4
1405 501 3 -0.8476 -9.359223129886672 -15.3881551688083 -17.469390315194453 0 -25 0
3859 1319 3 -0.8476 -11.594133593732522 -14.377196788607042 -19.566546199508878 0 3 -86
1548 548 4 0.4238 -8.876115582938152 -15.846419026403845 -15.839924189922186 0 -120 -27
1546 548 3 -0.8476 -8.597679045211908 -16.41230935018368 -15.063882140965768 0 26 32
392 163 4 0.4238 -9.8672423833581 -17.220851763280102 -19.47479373757212 0 -36 -4
1547 548 4 0.4238 -9.32816542784913 -16.424342288011406 -14.381060885115579 0 83 57
110 69 4 0.4238 -11.625708415306333 -19.682213161728935 -16.70381736387893 33 40 137
1406 501 4 0.4238 -8.905379121256596 -15.073758677491249 -18.303165163922298 24 -38 9
244 114 3 -0.8476 -13.111010242856032 -15.384303574101057 -14.183683864751332 4 -28 37
5909 2002 4 0.4238 -8.103076534624186 -17.836580839276102 -15.973375892018419 11 25 0
5908 2002 3 -0.8476 -8.04062504314884 -18.697593539545142 -16.478111167970713 -4 -15 17
2704 934 3 -0.8476 -4.408812178679759 -18.26986710578876 -15.110503744047705 0 -12 -22
2705 934 4 0.4238 -4.5331613349002575 -18.290609463047677 -16.10252599105118 0 -28 4
1612 570 3 -0.8476 -5.639728406123508 -16.162836477241424 -17.39359246394823 0 30 -21
1613 570 4 0.4238 -6.519251955297783 -16.01960201854375 -17.847379402245608 0 -22 24
1614 570 4 0.4238 -5.328895619498696 -17.09913796672874 -17.557067460185134 0 -31 44
4261 1453 3 -0.8476 -4.389796366561414 -15.002043727175046 -15.060988978873592 0 1 -59
5179 1759 3 -0.8476 -3.79473336137557 -15.81865008268374 -19.430359484505278 0 13 -77
5180 1759 4 0.4238 -4.297189881925069 -15.605524650132017 -18.59243575414446 0 16 78
4262 1453 4 0.4238 -4.737400129320353 -15.477336004038913 -15.869240273933283 4 -15 -162
2706 934 4 0.4238 -3.8294728567005683 -17.493148706579873 -14.863370678057153 0 -1 35
1768 622 3 -0.8476 -4.696072749819936 -18.7246599003351 -17.816883064911057 18 -26 2
1769 622 4 0.4238 -4.315228208066272 -18.897088294620488 -18.725302512362134 -13 -12 -75
5910 2002 4 0.4238 -7.9144937370918935 -19.452702379080666 -15.834759305002887 -100 113 98
1770 622 4 0.4238 -5.061888380681259 -19.576360217537783 -17.441669098322468 17 33 -35
5829 1975 4 0.4238 -4.35143061082758 -19.68504598283916 -14.361510693202497 0 11 8
5747 1948 4 0.4238 -2.0150723847380028 -15.08416611444541 -15.353072506530816 -1 57 2
3106 1068 3 -0.8476 -1.2243147573751012 -16.082000119218367 -18.7102600411843 0 -31 149
3107 1068 4 0.4238 -1.1471479466502696 -15.81230140618059 -17.750412184636033 0 4 -142
4497 1531 4 0.4238 0.3155019302088972 -16.970695219504332 -18.859224908394417 0 0 43
4495 1531 3 -0.8476 0.9701159175828941 -17.677247017983614 -19.12804962661267 0 0 -58
5746 1948 3 -0.8476 -1.3211687010896693 -15.646230841820739 -15.803162706355499 -1 -2 56
3108 1068 4 0.4238 -2.189760846746581 -16.174352897078982 -18.953950120937613 0 4 -111
4766 1621 4 0.4238 0.4256986780910581 -14.926325191040771 -15.579416211133493 -1 59 0
5748 1948 4 0.4238 -0.9594813079017787 -16.31383529253702 -15.152404071906995 -1 14 -24
4890 1662 4 0.4238 0.809450403279625 -17.685130455590134 -15.105253474780604 0 -33 -30
4765 1621 3 -0.8476 1.1578827387875579 -14.335635070749548 -15.240311061364599 -1 -80 0
2852 983 4 0.4238 1.5671140808579636 -17.617951216978856 -17.41392238715583 0 -84 -72
2851 983 3 -0.8476 1.8296782306812973 -17.31947198369187 -16.49633286950522 0 -50 -18
4888 1662 3 -0.8476 0.41304156389757485 -18.011059845499837 -14.24698187370997 0 42 22
4496 1531 4 0.4238 1.8059819473469794 -17.245559568356867 -19.467128307252775 0 3 5
1074 390 4 0.4238 -0.08518753443886289 -19.518482323727344 -14.91496877834755 0 -28 0
5846 1981 4 0.4238 1.0200061598131156 -19.452805374677023 -18.842546031012727 162 0 -18
2853 983 4 0.4238 2.816717654266879 -17.16172776685544 -16.466833278530874 0 29 72
2237 778 4 0.4238 -1.0556930236731605 -14.267633724668334 -19.685532100459824 0 0 4
2846 981 4 0.4238 2.6810820075049664 -14.697720240410694 -14.413890154169632 1 0 0
4378 1492 3 -0.8476 5.020859387906787 -17.94461019011294 -16.561103703256926 0 -35 46
5652 1916 4 0.4238 6.389315495958476 -17.211699065506018 -17.463167810202695 0 96 15
2857 985 3 -0.8476 6.837970750840572 -15.086103662154068 -15.167813383824571 0 31 36
5650 1916 3 -0.8476 7.039075389132737 -16.8111749128303 -18.10922703435053 0 3 24
5651 1916 4 0.4238 6.61457204136686 -16.030722790448177 -18.56823840735259 0 1 -1
2859 985 4 0.4238 7.539490621360074 -15.777097396730907 -15.342163388162446 0 11 54
223 107 3 -0.8476 5.409252480756662 -14.800416230021996 -19.160149194362873 0 0 16
4380 1492 4 0.4238 5.125932740935485 -18.331585019594023 -15.645019603140796 0 42 -86
4379 1492 4 0.4238 5.235434288034164 -18.6425309036153 -17.244378403704225 0 66 -16
2858 985 4 0.4238 5.937922117049601 -15.521591099451566 -15.15158122824913 0 -105 71
4631 1576 4 0.4238 5.218054876792931 -19.136256763813215 -19.486302294197223 13 14 0
4630 1576 3 -0.8476 5.385462001970948 -19.6206963936929 -18.627644550466893 18 0 0
225 107 4 0.4238 5.385545492105408 -14.192587183929778 -18.366434468719305 0 0 42
5149 1749 3 -0.8476 5.929321008286947 -19.644369410167815 -14.235175678560065 0 12 -44
1754 617 4 0.4238 8.912409699218271 -17.050744545457494 -18.096281036980603 0 56 39
1755 617 4 0.4238 10.013314803596435 -17.454413527934157 -16.95975735250463 0 21 30
2113 737 3 -0.8476 9.240560204065646 -17.116262476204586 -14.95187992196024 2 -29 73
1753 617 3 -0.8476 9.859409576095969 -16.9313669196115 -17.79805071839611 0 -18 0
395 164 4 0.4238 10.93581413414869 -17.692514946898218 -19.16878806694591 -30 -6 40
2850 982 4 0.4238 10.072633973836462 -15.107456873927342 -17.522096429189272 -25 0 7
396 164 4 0.4238 12.275728085238306 -18.624977871952087 -19.12671662999388 -5 -39 -89
1474 524 3 -0.8476 13.294439835325138 -19.211493357668704 -17.940744235618688 1 -15 -22
4027 1375 3 -0.8476 14.123152920407502 -16.86861379343279 -14.446018111666307 0 34 -25
5183 1760 4 0.4238 9.487020966794084 -18.9809415366265 -14.934535305794755 0 95 0
2114 737 4 0.4238 10.093535171046403 -16.619652675170745 -14.791217414938824 -9 54 10
394 164 3 -0.8476 11.76840240571718 -17.94817007377217 -19.66015073067046 -1 -137 -43
1476 524 4 0.4238 14.057663047287587 -18.754165695318036 -17.484298344638546 -9 -125 -33
2848 982 3 -0.8476 10.10178804363638 -14.127081299160004 -17.32712517258922 -28 0 -37
3621 1239 4 0.4238 12.524184890396745 -16.27516365581934 -14.156525414054585 0 -1 -78
866 321 4 0.4238 19.33851752840726 -18.200266251370476 -15.59931686724179 -35 -23 0
865 321 3 -0.8476 19.40415071443089 -18.59010622250724 -14.680775929510203 -10 -19 0
4029 1375 4 0.4238 14.725493938231727 -17.339988677223886 -15.090216089176252 0 8 -20
5790 1962 4 0.4238 18.51349797752819 -18.193037719549384 -18.295723288869198 14 21 -3
5315 1804 4 0.4238 18.981897126718934 -16.536126011457075 -16.986106874074693 -12 -10 -168
5314 1804 3 -0.8476 18.659826707694776 -15.628700472305995 -16.716200335489567 -7 21 99
5316 1804 4 0.4238 18.35770421057527 -15.652071768324202 -15.763217747846012 4 -17 -187
2970 1022 4 0.4238 16.292092772272575 -17.947019549450847 -16.95094423395297 -17 10 -18
2968 1022 3 -0.8476 15.533644974415799 -18.30127745981313 -16.403899190898112 -7 8 10
1126 408 3 -0.8476 15.94004870175588 -15.583800842258949 -18.286167427525946 -68 5 11
1127 408 4 0.4238 16.79914649156169 -15.532815156537835 -17.776901359277836 1 30 214
5788 1962 3 -0.8476 18.67806908203178 -18.367852074334404 -17.324972590588203 -6 -27 -66
5789 1962 4 0.4238 18.854987775187414 -19.342373707355144 -17.18710316183242 -16 1 -108
2969 1022 4 0.4238 15.889604047903168 -18.912027741662897 -15.696596389731111 -6 -21 -55
1128 408 4 0.4238 15.358463571026924 -14.80938188186924 -18.037100520395207 10 -62 -71
1855 651 3 -0.8476 17.688791003600972 -15.307055062746258 -14.28629886539384 9 -5 -54
4028 1375 4 0.4238 14.52880470490691 -15.990671581315109 -14.19172667314005 0 -16 35
3516 1204 4 0.4238 -19.700267869283454 -14.124620967275058 -17.16139385356433 29 0 9
2681 926 4 0.4238 -17.92202506291988 -13.904705319732761 -18.888740995575922 32 -9 -3
3515 1204 4 0.4238 -18.134689787969297 -14.033841557551028 -16.706035897261113 -62 0 -34
5195 1764 4 0.4238 -16.796376863857933 -13.506285767106627 -15.27185577839992 13 0 0
3514 1204 3 -0.8476 -18.804355444496185 -13.743476927269331 -17.389582775365817 -46 0 7
977 358 4 0.4238 -17.951238655245856 -11.07157679657511 -18.34796766173337 76 -24 88
976 358 3 -0.8476 -18.59561521687583 -10.832900631265701 -17.62146056060189 -1 37 16
978 358 4 0.4238 -18.932481843690702 -11.668237736004857 -17.187026650326853 49 -33 20
2404 834 3 -0.8476 -16.248004659744215 -11.886523388983566 -15.269535190804957 23 0 62
4284 1460 4 0.4238 -15.646128217454375 -12.403062001791426 -17.22638094621822 12 -60 -8
4283 1460 4 0.4238 -15.891754848878762 -12.167246497690881 -18.823467476369647 45 -179 -24
4282 1460 3 -0.8476 -15.282268329551012 -12.572782145533296 -18.142242231280854 5 51 28
2641 913 3 -0.8476 -17.100832464354802 -8.812048237593405 -16.58355883548607 97 24 102
2405 834 4 0.4238 -17.052931646244645 -11.695363081192392 -14.707796535105347 188 0 -26
2406 834 4 0.4238 -15.440209468224776 -11.478296113592565 -14.844308862134419 -2 0 -86
2642 913 4 0.4238 -17.52004136549659 -9.55970933307553 -17.09860035144674 30 -28 -26
3458 1185 4 0.4238 -19.436010705492944 -11.783071256138214 -14.479787903949953 30 0 -44
590 229 4 0.4238 -19.470026325450867 -10.861382095599994 -19.078320107456435 -6 0 53
3051 1049 4 0.4238 -14.86435570870398 -8.58461857224603 -17.01729562904307 0 0 0
2999 1032 4 0.4238 -17.131178457825957 -8.653162689179425 -14.954975119101658 61 0 -41
1185 427 4 0.4238 -13.593392426078353 -10.545774252007877 -15.240273414162147 100 -10 13
1494 530 4 0.4238 -12.087590675321453 -12.725515379977095 -18.48491816246786 46 0 85
1492 530 3 -0.8476 -12.494587495891555 -11.947233281809849 -18.006764859610627 -44 0 8
1493 530 4 0.4238 -13.453853517140574 -12.144716765495401 -17.804752511425836 18 0 -78
2080 726 3 -0.8476 -11.124576279786268 -9.894462110563072 -16.472521542496917 0 -8 -40
2081 726 4 0.4238 -11.240866568775841 -10.690314851547836 -17.06673980583841 0 14 58
2082 726 4 0.4238 -11.249977641731904 -9.058462227982982 -17.006730586771965 0 -11 29
5097 1731 4 0.4238 -8.816079569460566 -10.43801974595856 -18.194565829495552 0 0 0
605 234 4 0.4238 -9.84560900921751 -9.24120503460753 -15.369906883962898 -8 0 7
604 234 3 -0.8476 -9.13621671903085 -8.8134917908913 -14.809706920297588 23 0 -6
1469 522 4 0.4238 -8.865526021710032 -12.917780280999368 -15.213783184474066 0 47 -68
1470 522 4 0.4238 -8.76306172368205 -13.887401010662073 -16.52373133443434 0 30 90
4083 1393 4 0.4238 -11.696170730444347 -10.99734557213315 -19.442735993998436 0 -102 72
1183 427 3 -0.8476 -13.787614205282772 -10.665288959698417 -14.266623343615596 7 -18 8
5095 1731 3 -0.8476 -8.585650416865803 -11.401246819479045 -18.33275416065519 0 0 0
5096 1731 4 0.4238 -8.426551796925896 -11.8363629596561 -17.446547867019692 0 -1 0
4263 1453 4 0.4238 -4.940500952597033 -14.184524362228345 -14.89250335348093 0 124 -44
1468 522 3 -0.8476 -8.379151372038095 -13.082105680374834 -16.071942757609268 0 -25 -7
1625 574 4 0.4238 -6.647788350722785 -12.960566523441813 -15.272951936782517 0 -97 -29
1624 574 3 -0.8476 -5.879953715466781 -12.387597461949829 -14.986357364928242 0 -8 12
1626 574 4 0.4238 -5.532113682290315 -11.87828132481983 -15.773506910173309 0 69 31
3871 1323 3 -0.8476 -4.605994141835228 -11.542470735485407 -17.327540917058485 0 1 19
3873 1323 4 0.4238 -3.643868327469186 -11.811939492436151 -17.368778345895326 0 1 5
3872 1323 4 0.4238 -4.9578752500723695 -11.419907055355583 -18.25552682818291 0 1 -164
86 61 4 0.4238 -6.331022683389728 -10.002689630633652 -17.904054890055367 -21 -40 -12
4805 1634 4 0.4238 -3.362240347402263 -9.95440766587797 -15.50307173360508 0 0 -34
85 61 3 -0.8476 -6.657241938799509 -9.087738817473845 -17.666469946345696 21 -3 12
87 61 4 0.4238 -6.117670203693152 -8.728829419617838 -16.904861494911902 21 -40 38
4804 1634 3 -0.8476 -2.46948542710749 -9.889944349714115 -15.057164269845375 0 0 16
4767 1621 4 0.4238 0.7674129598289045 -13.61940984737009 -14.661902892500844 -1 -1 0
4097 1398 4 0.4238 -1.4757344459479007 -11.221363456476961 -15.260463020882403 23 3 0
4098 1398 4 0.4238 -0.3877312166760453 -12.284015058881314 -14.66578070323052 -84 70 0
5419 1839 3 -0.8476 -1.3810607211518904 -11.713035045637561 -18.159993051866202 0 1 -4
4096 1398 3 -0.8476 -0.8307704619130377 -11.94806319708547 -15.49695613440208 11 -41 0
379 159 3 -0.8476 1.5671402529815737 -10.650334691904929 -16.95878347386771 0 37 0
381 159 4 0.4238 0.6257275936312919 -10.963101095705081 -16.832611405768652 0 92 0
5421 1839 4 0.4238 -0.9063934295030759 -11.79458835209731 -17.283613884523046 0 34 10
380 159 4 0.4238 1.8061164180312104 -10.009609957049117 -16.229151904941723 0 -157 0
5420 1839 4 0.4238 -0.9031494101503043 -12.256903684210858 -18.849781750534312 0 -72 -43
2514 870 4 0.4238 2.2301473508312513 -13.394932964545072 -16.249593430467545 0 0 -41
2817 971 4 0.4238 -1.0470454292026266 -9.635856348275738 -18.7516713552818 0 -60 -38
561 219 4 0.4238 1.6012209802200184 -10.86213506621506 -18.70342133117102 0 -1 98
2815 971 3 -0.8476 -1.0789917599064764 -9.06431512288273 -19.571622807650225 0 52 -30
2513 870 4 0.4238 2.553705689042769 -11.916530273160209 -16.862995407287123 0 0 -19
4780 1626 3 -0.8476 2.565599927227315 -9.118394403749257 -14.871092703211694 0 13 -101
4806 1634 4 0.4238 -2.497190239086413 -9.176108260629286 -14.357399470711803 0 0 47
559 219 3 -0.8476 1.3655661278890896 -11.185778226032307 -19.619785326082607 0 -1 53
2512 870 3 -0.8476 2.956639157946891 -12.775569932713134 -16.54724945554233 0 0 11
5454 1850 4 0.4238 6.161693633345026 -13.838723259812381 -16.365578806819585 0 -35 -15
4782 1626 4 0.4238 3.354696031891116 -9.6609935199751 -14.583145493686281 0 22 -64
5453 1850 4 0.4238 4.732795642174702 -13.1609672226519 -16.772424976714674 0 -65 18
4166 1421 4 0.4238 7.269875587737223 -12.349466329517401 -18.395615465790602 6 33 41
5452 1850 3 -0.8476 5.709911000927189 -13.19429292772458 -16.982508316106546 0 1 74
2467 855 3 -0.8476 5.73020145245904 -10.66403148674792 -17.98062052945052 -7 -17 10
2468 855 4 0.4238 5.741173322684574 -11.535531557126722 -17.490346416359017 39 -34 -5
2469 855 4 0.4238 5.232348961516426 -9.984612235992449 -17.44160888977226 14 2 6
1969 689 3 -0.8476 7.698481771151921 -9.380328334345451 -19.17522691875616 -1 -80 -13
1970 689 4 0.4238 6.999810845295084 -9.927499188743214 -18.71428978958598 -1 -78 -34
1725 607 4 0.4238 7.652935916693508 -10.130266983464962 -15.21949450540995 0 -36 0
4165 1421 3 -0.8476 8.21920291974293 -12.602355582129908 -18.58222999952331 -1 -3 23
1723 607 3 -0.8476 7.128433589401662 -9.496487551922142 -14.650969235808146 0 -10 0
1724 607 4 0.4238 7.424373306731915 -8.55942869535223 -14.836280825906572 0 -21 0
1971 689 4 0.4238 8.258365653410983 -8.910908625401682 -18.492456675862638 -1 62 -30
3413 1170 4 0.4238 4.7882326346496376 -10.810631066183456 -19.5646758416232 -3 43 -85
1040 379 4 0.4238 3.858882689740558 -8.831755164105324 -16.35030872670629 0 0 17
1039 379 3 -0.8476 4.26739136407732 -8.548289650405305 -17.21793090775033 0 0 20
3530 1209 4 0.4238 8.580424202948327 -11.868807311654159 -17.0292449192844 0 0 -37
4167 1421 4 0.4238 8.441434797845885 -12.384796097701352 -19.53264123673274 -11 2 -58
3529 1209 3 -0.8476 8.524443355371977 -11.42706590376849 -16.133850276223125 0 0 1
6006 2034 4 0.4238 10.091789531194797 -13.37618833644591 -15.63061205279011 -121 -13 31
6004 2034 3 -0.8476 10.26802590425109 -12.993873534530367 -14.72354123025309 59 -73 -10
2849 982 4 0.4238 9.27115798929277 -13.69303011584334 -17.675913508289394 37 0 -129
3531 1209 4 0.4238 9.254419337731507 -11.773836586180481 -15.544880245561849 0 0 50
3780 1292 4 0.4238 12.739752220704469 -13.572045001176017 -15.21904439212141 0 -96 113
4036 1378 3 -0.8476 11.674684101880372 -10.425238484347666 -17.966251390007816 -56 -49 -38
4037 1378 4 0.4238 12.57052068933166 -9.988184494152321 -17.88587330958118 -17 2 13
4038 1378 4 0.4238 11.767932972041011 -11.287438032034974 -18.46416363132804 101 -77 -22
5430 1842 4 0.4238 11.605742449419644 -13.227292962617005 -18.397626414416276 54 0 122
3778 1292 3 -0.8476 13.689264708597523 -13.264738550579807 -15.155884556726118 0 20 -17
1536 544 4 0.4238 9.65405952680264 -9.434585662196016 -17.40933953441896 0 5 49
1534 544 3 -0.8476 9.240773800150215 -8.549559570089817 -17.195041265099732 0 -58 -93
5428 1842 3 -0.8476 12.171916077336638 -13.034392992584701 -19.199023792279412 -39 0 63
3779 1292 4 0.4238 14.04388706287277 -13.087148698536264 -16.073875048885736 0 -81 -70
2363 820 4 0.4238 19.566790610138064 -9.190981663414835 -17.161279123431175 -149 0 6
2397 831 4 0.4238 14.283144427395357 -11.96355705511089 -14.295078680484696 126 -25 -1
3082 1060 3 -0.8476 14.430599367851887 -9.660856075090415 -17.972707367785606 0 0 34
3083 1060 4 0.4238 15.244700067992282 -9.8723275764053 -17.431855491837563 0 0 25
5159 1752 4 0.4238 16.242448463155046 -12.609278737618695 -17.620090494483712 5 28 0
5158 1752 3 -0.8476 15.278627394753672 -12.832113650333048 -17.473825099087325 33 130 0
1290 462 4 0.4238 18.128333185682443 -11.217567114742142 -18.67804150360154 -65 0 -22
1288 462 3 -0.8476 17.700670998903874 -11.438006999497073 -17.801393310943183 -59 0 -15
1289 462 4 0.4238 17.320702342144514 -10.605935329837733 -17.39731271283196 -91 0 -71
5160 1752 4 0.4238 14.821701463280199 -12.931753838072943 -18.35773151096548 54 -21 -7
551 216 4 0.4238 18.38503600517926 -11.90510662624002 -16.343026073481955 109 -43 -122
550 216 3 -0.8476 18.92019461632558 -12.185763847860587 -15.546258742474864 -21 -27 113
3084 1060 4 0.4238 14.696432539339954 -9.146351879979305 -18.78794875833791 0 0 -94
552 216 4 0.4238 18.324834545289384 -12.653007481987348 -14.892630471046969 -98 -3 4
5935 2011 3 -0.8476 16.20384497357455 -9.936623386279548 -15.958706184166825 -28 0 0
5937 2011 4 0.4238 15.655304608809303 -10.572662204074557 -15.415973099409374 -42 0 0
5936 2011 4 0.4238 16.368506362763835 -9.103729293758704 -15.43033666550289 70 0 0
2364 820 4 0.4238 -19.435995049940463 -7.6617358814433985 -17.058256532872424 -77 0 -2
2643 913 4 0.4238 -17.026282175132007 -8.00475753124425 -17.168985914095206 57 -31 154
469 189 3 -0.8476 -17.02140329048493 -4.404008426422365 -17.533402037368024 -15 0 -1
4452 1516 4 0.4238 -17.36351661668925 -5.822472816410916 -18.465101664281732 -78 0 -27
4450 1516 3 -0.8476 -17.36053709165984 -6.8093639399559756 -18.626463100107248 1 0 11
4695 1597 4 0.4238 -15.5755179130312 -5.310158856418288 -16.601459991874904 4 0 -10
4693 1597 3 -0.8476 -15.343387371811682 -5.812228032429498 -15.768367668164466 -10 0 -15
4694 1597 4 0.4238 -16.04423821566588 -5.648240444962366 -15.074165368976276 -31 0 -42
471 189 4 0.4238 -17.757754308350318 -4.876506257860848 -17.049115974861692 132 0 -1
470 189 4 0.4238 -17.30209785350724 -3.465058152340169 -17.732356751938735 -10 0 -1
3757 1285 3 -0.8476 -18.954639886883967 -5.890444235086554 -15.773114957130367 49 0 -17
3050 1049 4 0.4238 -14.399213629313639 -7.28003482118831 -16.152234480891575 0 0 0
4451 1516 4 0.4238 -16.952008638908453 -6.999921233795497 -19.519095581066363 -40 0 68
3350 1149 4 0.4238 -15.266259601121424 -3.544298098849897 -17.737000991002397 -43 0 -164
3759 1285 4 0.4238 -19.313090435661 -6.6641961357669866 -15.250791857320074 133 0 -30
3758 1285 4 0.4238 -19.493081376721715 -5.072758508425347 -15.569470452322207 -11 0 -25
3349 1149 3 -0.8476 -14.606374606402094 -2.8410864925054327 -18.001661817255616 -46 0 1
3049 1049 3 -0.8476 -14.079434698768344 -8.089153559779435 -16.645255374745037 0 0 0
2892 996 4 0.4238 -14.141358838007033 -3.536275951216297 -14.557937295187152 0 6 7
2328 808 4 0.4238 -14.037499900437759 -5.436800588221961 -14.943946191139649 -22 0 3
3701 1266 4 0.4238 -12.567554772987558 -7.679287040214713 -17.466666559617355 0 0 57
2041 713 3 -0.8476 -12.478639908308173 -4.1046912496828645 -19.335889287191847 0 15 -49
3702 1266 4 0.4238 -11.37455312565027 -6.592291128772154 -17.218043429225407 0 0 89
3700 1266 3 -0.8476 -11.605746427643368 -7.468380871233177 -17.64114680777686 0 0 44
1943 680 4 0.4238 -11.685218038716402 -4.9834313390500435 -15.891762870214539 0 -16 -5
1942 680 3 -0.8476 -11.27026258079643 -4.819856205999257 -16.78677972802594 0 6 1
1944 680 4 0.4238 -10.798316082680993 -3.9382610681680257 -16.779259648583007 0 -11 0
2756 951 4 0.4238 -10.161776947104045 -7.132789630725724 -18.536957711463714 -2 0 -33
2043 713 4 0.4238 -12.07789181242342 -4.158890267460962 -18.421305520627623 0 45 -26
688 262 3 -0.8476 -9.330860381992233 -6.2099949643073415 -14.918441546844981 -1 0 0
690 262 4 0.4238 -9.283169020385714 -7.207721446297141 -14.96605923685992 -1 0 0
2755 951 3 -0.8476 -9.26835733503362 -6.946186401371618 -18.9455912130988 6 0 -38
2326 808 3 -0.8476 -13.133642126383396 -5.166959323104008 -14.611941908167129 58 0 -4
4502 1533 4 0.4238 -12.458606928721466 -7.399373839174796 -19.383023403794805 0 97 145
689 262 4 0.4238 -9.009946412239485 -5.819403555101248 -15.781258201686239 -1 0 0
3351 1149 4 0.4238 -13.891566720013671 -3.2510841601381095 -18.568187924588493 -9 0 -3
2757 951 4 0.4238 -8.577292880874298 -7.527231839363308 -18.51568863830751 -35 0 4
2042 713 4 0.4238 -12.793926087166302 -5.01143269548555 -19.615915426905048 0 -20 36
260 119 4 0.4238 -8.441987650950132 -4.6680054207918396 -18.38324928083735 1 0 -7
763 287 3 -0.8476 -4.874225163072426 -8.261161093505747 -15.490440413228741 0 0 -21
765 287 4 0.4238 -5.696077172685462 -7.927033643796828 -15.029009211165135 0 0 -166
764 287 4 0.4238 -4.271309922633068 -7.490546065292846 -15.696949282793991 0 0 33
2521 873 3 -0.8476 -5.5385597984810016 -4.069479091703408 -16.0587671596697 -1 0 39
2522 873 4 0.4238 -6.095193689277444 -4.331942698319979 -16.84697563714212 -1 0 -6
2523 873 4 0.4238 -4.6147558004792835 -4.437055730140878 -16.165886948133114 -1 0 18
259 119 3 -0.8476 -7.492613457787493 -4.390700557438671 -18.235631768690997 -7 0 -24
800 299 4 0.4238 -6.4789048280693216 -7.6365510768195755 -19.042199042287773 0 -4 25
801 299 4 0.4238 -7.125907593607304 -6.256174028374062 -19.62749674816494 0 43 1
3932 1343 4 0.4238 -6.535430275149441 -4.169215889333398 -14.606404058765255 0 -5 -22
261 119 4 0.4238 -7.4290005191258635 -3.393046441871457 -18.2609250264703 -3 0 4
5251 1783 3 -0.8476 -3.2182102781328052 -5.887718603281331 -16.048401569153146 0 0 -18
5253 1783 4 0.4238 -3.3078078084828517 -5.938252690204489 -15.05370633997967 0 0 -3
1686 594 4 0.4238 2.4025717287210666 -8.50468725140333 -18.360142206503454 -1 -7 -23
2816 971 4 0.4238 -0.26863127950292287 -8.479161842956842 -19.60182183074414 0 -138 -1
128 75 4 0.4238 1.0018161285282603 -8.227594405390244 -14.883643335442386 0 0 16
3492 1196 4 0.4238 -2.5656686096467207 -5.601487517065434 -19.57334848227524 -2 1 97
1684 594 3 -0.8476 1.5928228623700382 -8.295654320041743 -18.908423171252323 -1 25 14
5252 1783 4 0.4238 -2.251475652134293 -5.938886347365507 -16.29901291726486 0 0 41
3533 1210 4 0.4238 0.25007552555575324 -5.179976189805635 -16.865599701664994 -39 53 23
3532 1210 3 -0.8476 -0.4267296157122222 -5.8463873840031955 -16.552820347761337 37 33 28
127 75 3 -0.8476 0.2896023485751364 -7.547601601001718 -14.709397752602019 0 0 -56
3534 1210 4 0.4238 -0.060482702678474304 -6.3518119946132865 -15.771533454730289 85 -37 -42
4581 1559 4 0.4238 1.6435814825226198 -6.2581538138517745 -18.58481169732291 0 0 113
4579 1559 3 -0.8476 1.9254805947669162 -5.317837559483714 -18.775437644377018 0 0 12
3823 1307 3 -0.8476 -1.0007835570403951 -3.4557788340882434 -14.93423434253951 0 0 71
4218 1438 4 0.4238 0.8062869323499247 -3.799675546148103 -18.341592845192167 0 0 -42
3491 1196 4 0.4238 -1.6535749120345846 -5.713833750794325 -18.223500186292505 81 22 -10
4216 1438 3 -0.8476 -0.057027200562751824 -3.332748486274157 -18.15010433538399 0 0 44
4217 1438 4 0.4238 -0.8021559129082197 -3.802408693501802 -18.623604616628466 0 0 -53
3490 1196 3 -0.8476 -1.782644214053969 -5.219008797453386 -19.08285459781918 -31 11 43
4580 1559 4 0.4238 2.765172898569734 -5.325183623998069 -19.318450454957997 0 0 65
3824 1307 4 0.4238 -0.8121416280255961 -3.6530840609401185 -15.896255588568504 0 0 1
596 231 4 0.4238 2.718964290740141 -4.451123461304337 -17.388671223169155 0 51 0
4781 1626 4 0.4238 2.662375858549046 -8.182949823034331 -14.531125199516236 0 -38 19
597 231 4 0.4238 3.083574353511706 -3.2196457745473115 -16.38013286147941 0 -150 0
1041 379 4 0.4238 4.756170803791847 -7.685310721875139 -17.090015299925625 0 0 11
595 231 3 -0.8476 3.3702586057504678 -4.120705885084239 -16.705560368272163 0 3 0
1994 697 4 0.4238 4.816123931135779 -5.280589995348508 -17.096469364524484 -1 0 -20
1993 697 3 -0.8476 5.7270310802394455 -5.692862157911325 -17.079712657249107 -1 0 59
1995 697 4 0.4238 5.954975350600404 -6.034756274444395 -17.991387537876086 -1 0 -18
5915 2004 4 0.4238 7.081543951451523 -5.106228854000086 -16.407022004250294 0 0 -104
5914 2004 3 -0.8476 7.786467142768477 -4.655312195377772 -15.85952086143207 0 0 22
909 335 4 0.4238 7.0626766953537565 -6.317360484781664 -19.405899133176717 -29 0 7
907 335 3 -0.8476 6.2012626550153565 -6.825255847055157 -19.408765715461964 33 0 25
3224 1107 4 0.4238 7.373337701282 -3.0382906610444365 -15.276984212742647 43 0 -123
908 335 4 0.4238 6.390830508842465 -7.802497943467305 -19.503959987446166 -105 0 -15
4455 1517 4 0.4238 4.026838533021869 -5.95193910095377 -14.345404478740123 0 0 10
5175 1757 4 0.4238 8.281120194311427 -5.491139959131006 -14.410569457051958 2 0 -27
4453 1517 3 -0.8476 3.1515461539830025 -6.407271256585269 -14.182506067200594 0 0 -10
1535 544 4 0.4238 9.372518308893433 -8.346353997459449 -16.224808874721838 0 50 -18
5916 2004 4 0.4238 8.653981304394444 -4.6685752618630785 -16.356756498769588 0 0 -2
4459 1519 3 -0.8476 8.646929363324604 -6.235710881211763 -18.825207246281654 -23 0 -1
4460 1519 4 0.4238 8.831117418208898 -6.850285774237561 -18.05815283377859 11 0 19
4461 1519 4 0.4238 9.143575180941044 -5.378064846959112 -18.69184218206086 -47 0 -34
952 350 3 -0.8476 10.611612465740675 -8.159066122331684 -14.434629987622179 -1 0 -60
1343 480 4 0.4238 10.872641190348617 -7.090223587162113 -17.34474310440414 0 -33 -22
1344 480 4 0.4238 11.26084663702736 -7.5475654213625765 -15.82594045579484 0 94 -57
1342 480 3 -0.8476 11.499478445942357 -6.936711068393127 -16.58086551849514 0 -2 25
853 317 3 -0.8476 9.806831389409028 -4.142865366696364 -17.726056391447532 -43 39 46
855 317 4 0.4238 10.621661048648532 -4.119227286287693 -17.146836871852685 190 -18 86
4642 1580 3 -0.8476 11.93367245212416 -4.088170728464453 -16.01845501722449 0 -20 0
4643 1580 4 0.4238 11.69852595499543 -5.0278948906390095 -15.770210085343937 0 -1 0
4644 1580 4 0.4238 12.076418256293946 -3.549798525825835 -15.187925476738602 5 -8 0
2736 944 4 0.4238 13.067461125995692 -6.432525670113952 -16.895611536982383 -67 0 -67
2186 761 4 0.4238 13.211623426124774 -3.6933529815616186 -17.62425418688687 44 0 -69
2185 761 3 -0.8476 13.129847230958479 -3.5507613707752586 -18.610652208081504 -34 0 -19
854 317 4 0.4238 9.813844641114848 -3.356261517433347 -18.34347507848508 -70 -40 -135