LAMMPS data file via write_data, version 23 Jun 2022, timestep = 7500000

6018 atoms
4 atom types
4000 bonds
1 bond types
2000 angles
1 angle types

-19.633792282314346 19.633792282314346 xlo xhi
-19.633792282314346 19.633792282314346 ylo yhi
-19.633792282314346 19.633792282314346 zlo zhi

Masses

1 22.99
2 35.423
3 15.999
4 1.008

Bond Coeffs # harmonic

1 517.63 1

Angle Coeffs # harmonic

1 37.9505 109.47

Atoms # full

5854 1964 3 -0.8476 -15.81802175818572 -16.212137631443724 -16.847319112679855 15 0 -6
5856 1964 4 0.4238 -16.00270346270453 -15.543294709585501 -16.12722054893327 24 0 -7
5855 1964 4 0.4238 -15.926196197021492 -15.777662724197986 -17.741483553727228 -122 0 -1
2608 882 3 -0.8476 -15.64559248730066 -14.640405748881099 -19.295924214823742 30 0 -58
2609 882 4 0.4238 -15.64911087438984 -13.72552293376371 -18.892219643459942 76 0 9
4722 1586 4 0.4238 -16.509548711551123 -18.708280295295033 -13.962496633042937 -48 -28 -40
3107 1048 4 0.4238 -16.340366021487565 -16.078452093918536 -13.837711270923826 16 0 0
3106 1048 3 -0.8476 -16.24485944158311 -15.120332429313084 -14.107685305762566 6 0 0
5882 1973 4 0.4238 -14.240954376507672 -17.602140874316117 -16.240235770996957 0 19 0
5881 1973 3 -0.8476 -13.507742969695528 -18.082957859968193 -15.75938592120437 0 -3 0
4721 1586 4 0.4238 -15.107656161969674 -17.923560579693156 -14.254966849167069 -122 -10 44
2527 855 3 -0.8476 -13.816729939738934 -18.568151642373554 -18.97076996912108 -18 -14 -88
939 325 4 0.4238 -18.286766145585954 -14.078808325096988 -14.68902664166313 9 70 -8
937 325 3 -0.8476 -19.031190090304165 -13.447151359809776 -14.905457864360292 6 -68 54
4720 1586 3 -0.8476 -15.851273395275646 -18.049455798977252 -13.598320698501972 -2 -5 5
603 213 4 0.4238 -18.773703118149292 -18.391117157843432 -13.6333410468511 62 62 1
601 213 3 -0.8476 -18.862143984291677 -19.1220353360777 -14.310051356772867 -55 43 -6
3108 1048 4 0.4238 -16.004636394470623 -14.5709023252199 -13.307422705089207 -15 0 0
2528 855 4 0.4238 -14.709297372085194 -18.395713589613585 -19.38740954961176 40 20 -127
2529 855 4 0.4238 -13.467557023215598 -19.451209373332343 -19.284278191143514 -82 128 -86
2610 882 4 0.4238 -14.702691744811007 -14.924081717763054 -19.470471183085074 -35 0 28
1290 442 4 0.4238 -13.133570020774712 -19.616709314737367 -14.641230132186584 40 23 -111
5883 1973 4 0.4238 -12.622553259261275 -17.775564944917118 -16.108597848663113 0 -21 -4
1699 579 3 -0.8476 -9.580267272941159 -16.016669881820842 -14.01680856298577 26 0 67
1464 500 4 0.4238 -10.911425699361923 -15.995375931443478 -15.656097521440236 36 24 7
1463 500 4 0.4238 -11.563366530142508 -16.29906963599962 -17.122170566898323 -32 28 41
1462 500 3 -0.8476 -11.252378635168725 -15.580768698261773 -16.499811032855774 -65 6 -28
4194 1410 4 0.4238 -8.50015948701521 -16.148654492218675 -16.76816411781935 -34 45 30
4192 1410 3 -0.8476 -8.338959595408966 -16.904666346737997 -16.133766218816337 -1 37 -25
2974 1004 3 -0.8476 -11.419081508286766 -17.761258496428383 -18.074729096661734 18 -7 -11
4193 1410 4 0.4238 -8.698631486996566 -16.66543204894736 -15.231877580139384 -24 23 23
1915 651 3 -0.8476 -8.598077678458715 -15.048661694455197 -18.142388686191175 -17 -2 -16
1700 579 4 0.4238 -8.87206518563793 -15.375485868522244 -13.721287173103681 30 -8 -10
1916 651 4 0.4238 -8.23245171801203 -14.12149926253087 -18.224169258081965 -22 -5 125
2976 1004 4 0.4238 -12.32957303146503 -18.10025631839576 -18.311553300001144 95 -1 13
5402 1813 4 0.4238 -8.7038948420696 -18.572857378481338 -17.1303265164755 137 61 31
1917 651 4 0.4238 -9.00379202052776 -15.325012427407087 -19.013610303332886 -15 0 139
5930 1989 4 0.4238 -11.523893786528674 -13.825267696096526 -14.97263655928462 82 7 67
2656 898 3 -0.8476 -11.584458027260828 -14.156763935047586 -18.857294894002937 -2 -3 0
5401 1813 3 -0.8476 -8.694242180208896 -19.5475182675116 -17.353808430846627 4 -23 12
2658 898 4 0.4238 -11.112219392248047 -14.368888511853221 -18.00172849684707 18 2 0
2975 1004 4 0.4238 -10.742787387776067 -18.16317859314387 -18.692051145650318 -44 -51 3
2657 898 4 0.4238 -12.106270733772295 -14.955485207715 -19.156887683145353 8 4 0
633 223 4 0.4238 -9.093421656256792 -18.80045622435106 -19.34227021302894 0 32 73
5638 1892 3 -0.8476 -7.572394342976568 -14.551206580344344 -13.142252036167871 -1 0 19
3626 1221 4 0.4238 -6.714572975809836 -15.8922804435344 -17.232394516531546 -55 6 -4
5639 1892 4 0.4238 -6.657910713703562 -14.704870687256575 -13.51656177611706 90 0 2
1701 579 4 0.4238 -9.956397341840363 -16.48858124099042 -13.219421672477706 -43 -4 -22
3203 1080 4 0.4238 -2.651631588576322 -19.369334712221868 -18.378719324784242 0 -23 -41
535 191 3 -0.8476 -5.755219044201331 -18.751218151685112 -17.1283405521283 21 -19 -10
1425 487 4 0.4238 -6.318628040906553 -13.683029854207208 -18.420294825448565 0 0 -18
1619 552 4 0.4238 -4.428502425322995 -14.390264116679111 -15.090731922967697 -30 0 31
3625 1221 3 -0.8476 -5.750738772490013 -15.964683053367237 -17.488874614726377 -3 18 0
1620 552 4 0.4238 -4.587326358665351 -15.979816311881704 -14.75201863514514 -51 0 -8
2515 851 3 -0.8476 -2.4960784806996363 -16.212821886334833 -16.334539799892852 0 -15 -14
2517 851 4 0.4238 -2.508995571045006 -16.848701294747944 -17.106220477411178 0 -6 -56
2516 851 4 0.4238 -1.5495678687459036 -15.984149772042981 -16.106882661813135 0 -5 -54
3627 1221 4 0.4238 -5.180305394201596 -15.627241244272996 -16.740049266517488 -1 -13 0
1618 552 3 -0.8476 -5.059141451505518 -15.098370385018358 -14.77311477576124 -16 0 15
3310 1116 3 -0.8476 -3.987793188893726 -17.54843557232829 -14.65675524807079 1 10 0
3311 1116 4 0.4238 -3.579685531146629 -18.289761082270434 -14.123946128088 1 28 0
3312 1116 4 0.4238 -3.3192852553516716 -17.20485745965588 -15.316340669789449 1 -87 0
3202 1080 3 -0.8476 -2.406347420772376 -18.401858528935765 -18.31686660395706 0 13 -32
1827 621 4 0.4238 -4.599285690055953 -16.58929603684689 -19.218816112692277 26 29 28
5749 1929 3 -0.8476 -3.3906062637060446 -13.681843059640707 -19.177208598965937 0 14 -94
3204 1080 4 0.4238 -2.8468976730921707 -17.898140663119776 -19.059957885267366 0 31 -16
536 191 4 0.4238 -5.728005574941952 -17.751588147532136 -17.12852008246521 10 42 53
5697 1911 4 0.4238 -3.7655242521141514 -13.440909335952778 -17.512331351976442 3 0 -36
537 191 4 0.4238 -5.162282986344908 -19.100665950006746 -16.402866054395428 49 93 13
5001 1679 4 0.4238 -0.5686481240567423 -17.989028489610213 -18.073592430433667 0 121 -142
5751 1929 4 0.4238 -2.4156334208836334 -13.81133419120386 -19.3579303652251 0 107 141
5695 1911 3 -0.8476 -3.9801543665662855 -13.204062058858865 -16.56478788202809 0 0 -14
812 283 4 0.4238 -5.3784101504807404 -18.284621811704504 -13.042027634997433 -16 92 34
4962 1666 4 0.4238 -15.492875027889847 -12.47266125348266 -16.290810249277545 41 72 -1
4960 1666 3 -0.8476 -15.49828242352547 -12.384115597064538 -17.28686779856596 -3 10 0
4961 1666 4 0.4238 -16.436375071473826 -12.46524220255189 -17.62361907344316 -50 35 12
1949 662 4 0.4238 -13.87339516247158 -11.850793124746023 -18.048453627696823 0 -19 -5
3607 1215 3 -0.8476 -18.121432371866028 -11.15400515892034 -15.979608852628454 -54 0 2
3608 1215 4 0.4238 -18.42492212560117 -12.088828906061815 -15.795221889380983 152 0 -3
3609 1215 4 0.4238 -17.702039096969592 -10.771245341081297 -15.156441666694366 -6 0 -18
4363 1467 3 -0.8476 -18.379245395394523 -8.739438884077046 -19.055681791098728 -62 -2 -85
1333 457 3 -0.8476 -15.782957456265875 -7.980099701743734 -17.173022152553678 23 0 10
880 306 3 -0.8476 -17.932287075030754 -12.268494976405995 -18.802922514305607 -10 17 8
5035 1691 3 -0.8476 -17.505914225621847 -9.95304796281691 -13.564950617643078 6 -3 0
881 306 4 0.4238 -18.228055017897155 -11.466327958577565 -18.28422220907078 -17 24 9
1334 457 4 0.4238 -16.643249478845032 -8.361669712441143 -17.511108240919835 -29 0 -20
4029 1355 4 0.4238 -14.892186106282013 -9.144493425040123 -15.795144038751335 -12 0 -123
1335 457 4 0.4238 -15.975693936790545 -7.290851649580212 -16.474601747864757 112 0 47
5036 1691 4 0.4238 -16.786570567470793 -9.465656242096987 -14.059919869347489 -47 -72 0
789 275 4 0.4238 -17.433942495813945 -6.974126604701299 -14.06566666697119 -3 -20 3
4027 1355 3 -0.8476 -14.565905864361023 -9.4757405776594 -14.909809632488395 4 0 92
787 275 3 -0.8476 -18.138603131595683 -7.335270430632734 -13.45490568562959 0 27 22
4028 1355 4 0.4238 -13.572044398280804 -9.582321952060257 -14.93948129247586 -7 0 6
5530 1856 3 -0.8476 -13.491651358070841 -6.777339918115314 -18.69341049659326 29 0 -3
5531 1856 4 0.4238 -14.369232529860168 -6.9367732030722395 -18.241267566266444 -72 0 20
4364 1467 4 0.4238 -19.08617228747546 -8.76299915611758 -18.348787666681954 -35 -8 117
5780 1939 4 0.4238 -13.444728024246295 -6.951354947318721 -13.656681450638624 32 0 -57
788 275 4 0.4238 -17.99720270454033 -8.316853110081928 -13.32644364560807 -11 -3 -4
1948 662 3 -0.8476 -13.08719426143237 -11.751537818833675 -18.65840270913583 0 -7 9
273 103 4 0.4238 -8.41814714694648 -12.925819170746262 -13.120032142690077 -69 -4 -83
5532 1856 4 0.4238 -13.094776228738533 -7.652861195979971 -18.969007828353075 27 0 -7
5929 1989 3 -0.8476 -11.305874045850196 -12.849504463699686 -14.991442875921797 -48 -34 26
1423 487 3 -0.8476 -6.935765680928559 -12.909479083528332 -18.564381340049056 0 7 -15
5931 1989 4 0.4238 -10.331900294637956 -12.72192149282764 -14.804097834590635 -58 -29 44
1950 662 4 0.4238 -12.674913347918203 -12.648262514878716 -18.819369525475306 0 10 -46
271 103 3 -0.8476 -9.04719793797611 -12.207886028731927 -13.418138033349377 -70 2 63
1518 518 4 0.4238 -11.047397071390229 -9.555925511566215 -13.910390653147735 0 0 -34
4216 1418 3 -0.8476 -11.749907420152011 -10.249373097189437 -15.233211120774051 -28 15 0
4217 1418 4 0.4238 -11.990120019714107 -11.196181296223099 -15.01907990697956 47 -16 0
4218 1418 4 0.4238 -11.2315811433881 -10.222148820242445 -16.087960633039664 37 -44 0
5123 1720 4 0.4238 -7.936010399663393 -10.48262317756601 -16.235065308687624 -4 -1 -5
5124 1720 4 0.4238 -8.481171244519025 -9.875595668764989 -17.649612585175962 23 -1 25
5122 1720 3 -0.8476 -8.717995587499997 -10.063496981986725 -16.696403209153488 4 -1 1
137 58 4 0.4238 -12.470661004802276 -10.064374041715357 -18.508053655137562 0 0 -17
136 58 3 -0.8476 -12.014892822538746 -9.21162238024179 -18.763181059818315 0 0 44
1479 505 4 0.4238 -8.104490906540684 -8.044460234619926 -16.616578485803416 122 -52 0
1477 505 3 -0.8476 -7.512198678576654 -7.305493632038032 -16.937699201781843 -51 19 0
5974 2004 3 -0.8476 -6.708037646825624 -10.830920399702226 -13.554491015416687 0 -3 0
1478 505 4 0.4238 -7.734261248002707 -7.089646251299193 -17.888540551521253 -74 -27 0
4570 1536 3 -0.8476 -7.755639421748714 -9.443875126647736 -19.29932438277639 0 0 -25
5976 2004 4 0.4238 -7.626600819126324 -11.225197553012395 -13.582549087099995 0 11 0
4572 1536 4 0.4238 -6.839995271686227 -9.760484754559087 -19.051624386813735 0 0 -44
456 164 4 0.4238 -10.771436873437704 -7.23877741992321 -18.268679342586875 0 0 3
1424 487 4 0.4238 -7.044139303330152 -12.405448540169953 -17.70752127172254 0 2 -14
2737 925 3 -0.8476 -8.239795704772465 -6.644007730006714 -19.53556613590142 65 -27 36
4571 1536 4 0.4238 -7.725168094896056 -8.466406625633882 -19.50819686828313 0 0 109
138 58 4 0.4238 -11.302511784540911 -9.403465286939621 -19.438243698186678 0 0 11
2132 723 4 0.4238 -0.14719668190355212 -13.094849423052587 -13.895209634118157 -11 0 -17
4662 1566 4 0.4238 -6.2758691975588174 -11.043876373103041 -15.314514140348876 -43 -101 4
5696 1911 4 0.4238 -3.2368429942186148 -12.655646158171214 -16.18173538208334 -20 0 -10
4171 1403 3 -0.8476 -0.27429615898094317 -12.573815024227274 -16.6382058438529 0 1 0
4660 1566 3 -0.8476 -6.075050325118102 -11.41668810468742 -16.220429817755818 -14 2 -5
4661 1566 4 0.4238 -5.192913883694124 -11.887202507908581 -16.199180923075193 42 -53 17
4172 1403 4 0.4238 -1.0058360870492762 -11.98465824265133 -16.29506789904744 0 101 -48
1235 424 4 0.4238 -5.885208390997123 -7.579203042791634 -16.086570093086817 0 0 -18
1958 665 4 0.4238 -4.793340900223728 -7.739093505997419 -14.010131984269774 0 25 -75
3900 1312 4 0.4238 -2.0003852613328403 -7.8853454284239834 -16.1655183759051 0 30 -8
3898 1312 3 -0.8476 -2.374639977497098 -8.384485851606243 -15.383986366551879 0 34 12
3899 1312 4 0.4238 -3.3413809527751055 -8.153960550755004 -15.273216314547447 0 -11 1
1234 424 3 -0.8476 -4.939989075453238 -7.558635650170269 -15.7607826564844 0 0 0
2068 702 3 -0.8476 -0.35007790829307583 -8.860373299502282 -13.435724639110528 -23 24 0
2069 702 4 0.4238 -1.0314616949024784 -8.7029313214873 -14.15051703964574 21 36 0
3290 1109 4 0.4238 -2.1966013610633124 -11.65428304114813 -14.408877463019252 -9 0 -30
3289 1109 3 -0.8476 -2.35917826111822 -11.246887597278695 -15.307541888450054 4 0 -19
3291 1109 4 0.4238 -2.3352718422643153 -10.250115976661217 -15.230894413629818 36 0 -114
2902 980 3 -0.8476 -1.615577064186938 -7.0987493038525615 -17.824437230435798 3 0 -64
1091 376 4 0.4238 -1.2224266359012672 -9.018197736832402 -18.870037145070906 -1 13 -2
1090 376 3 -0.8476 -0.32923294783666285 -9.249538398554941 -19.2556364499158 -1 -26 7
805 281 3 -0.8476 -5.062403034341251 -10.019988337157894 -18.63020333800014 9 0 -80
807 281 4 0.4238 -4.97981750325154 -10.682530365223512 -17.88574514642131 82 0 -75
2981 1006 4 0.4238 -4.938431076493588 -8.141653506779114 -19.14466303284998 0 -52 -33
2980 1006 3 -0.8476 -4.441185045716461 -7.291796490646194 -18.97004933952581 0 -11 0
806 281 4 0.4238 -4.425716709525682 -10.2607087051309 -19.36279144114898 33 0 34
1236 424 4 0.4238 -4.547336820242748 -6.655393146967302 -15.933921998144562 0 0 -45
2982 1006 4 0.4238 -4.210031087079009 -7.2343943227025 -17.998826772377225 0 5 -68
2904 980 4 0.4238 -2.1662515109567253 -6.792351773436089 -18.600889760247824 22 0 48
5750 1929 4 0.4238 -3.6381947457151718 -12.72877762947054 -19.35146922583148 0 -31 43
2903 980 4 0.4238 -0.6665073890127918 -6.812067713724409 -17.955130175211856 -8 0 36
4163 1400 4 0.4238 -0.031215696178627104 -7.07836444723032 -13.52999904848905 0 10 -13
2605 881 3 -0.8476 -4.591250198947279 -4.015441010467091 -0.5323675967618584 0 0 0
4592 1543 4 0.4238 -15.178222056475008 -5.738472684795751 -14.704927112038117 -12 -38 82
5779 1939 3 -0.8476 -13.707050472232341 -5.995568740481462 -13.789571150588399 1 0 33
4591 1543 3 -0.8476 -15.962804093367607 -5.969379885844494 -15.280352217317258 22 2 33
4593 1543 4 0.4238 -16.128753884607242 -5.228152416827867 -15.930769686629974 -6 -11 -78
4915 1651 3 -0.8476 -17.464937324452084 -1.9997567966426557 -15.315718768417279 28 0 3
1048 362 3 -0.8476 -17.412917660955532 -4.073775119030263 -16.851012564754097 -45 0 -18
1049 362 4 0.4238 -18.280813978057232 -4.495314698685904 -16.58821893842514 3 0 -44
1050 362 4 0.4238 -17.185117858923412 -4.336577436659026 -17.788585130164925 -58 0 -34
4086 1374 4 0.4238 -15.341775159342717 -2.2362900653963975 -18.110973529192606 0 0 45
4917 1651 4 0.4238 -17.219080827001992 -2.700397814905731 -15.985537247379403 56 0 -33
4916 1651 4 0.4238 -18.39637971742167 -1.6817597739758618 -15.492617005320215 -49 0 -43
168 68 4 0.4238 -14.296531367719668 -1.690440733076505 -15.278451991534414 0 0 31
166 68 3 -0.8476 -13.674062125949442 -2.2660438733155193 -14.748156649298307 0 0 9
1936 658 3 -0.8476 -14.945420460907744 -0.7957299924246962 -16.456311909523507 0 -1 -28
4084 1374 3 -0.8476 -15.632399507367118 -2.1922115123270918 -19.066795283552384 0 0 -44
1937 658 4 0.4238 -15.916005912522722 -0.57407181084777 -16.550288267609027 0 18 73
5231 1756 4 0.4238 -16.924256839696806 -0.9675970125491263 -14.076417925097132 -21 10 6
4085 1374 4 0.4238 -16.369673058574747 -2.84981569480754 -19.221666475791114 6 0 -3
326 121 4 0.4238 -17.17464457568862 -3.0342585070408745 -13.522497221488388 -16 0 -4
715 251 3 -0.8476 -16.979066655768335 -4.833126695080362 -19.30690099362987 0 -3 29
5230 1756 3 -0.8476 -16.49453124630574 -0.3477521843879022 -13.419814299126337 -23 8 28
167 68 4 0.4238 -13.678238746815374 -3.193684162274997 -15.12160823475825 0 0 1
1938 658 4 0.4238 -14.401208938782492 -0.1364687978435208 -16.97516499498718 0 6 41
716 251 4 0.4238 -16.687315579402757 -5.753299138853051 -19.567984276311183 0 11 14
951 329 4 0.4238 -0.31033677996303227 -19.601329436746436 -9.557391446072026 -43 12 46
4991 1676 4 0.4238 -13.109408316272923 -5.22712861737214 -15.19122962584221 0 23 -15
2739 925 4 0.4238 -9.201467784886638 -6.480063311607546 -19.315772921533192 43 -20 -78
455 164 4 0.4238 -11.785369936248651 -6.0007570264046075 -18.594058728857487 0 0 38
93 43 4 0.4238 -7.952076613827607 -6.072648320177712 -15.367230201109075 55 0 11
2358 798 4 0.4238 -12.583673020110197 -2.284102708559084 -19.061948473279966 0 0 -21
454 164 3 -0.8476 -10.836453157630515 -6.312821430974622 -18.640671827059048 0 0 -31
92 43 4 0.4238 -8.897810153743187 -5.914770402909918 -14.045379370503838 -36 0 -20
4990 1676 3 -0.8476 -12.919914122376387 -4.509598596686859 -15.861486146258175 0 -3 -24
4992 1676 4 0.4238 -11.936943053302233 -4.327464925366624 -15.885893493933217 0 33 0
5492 1843 4 0.4238 -11.071758034931818 -1.9717519574399829 -17.025881596547237 58 0 -39
5491 1843 3 -0.8476 -12.036580269715992 -1.7559823625769926 -17.176088347813625 -27 0 1
3852 1296 4 0.4238 -9.667558234982714 -2.548101496395959 -15.251814294180969 1 0 2
3850 1296 3 -0.8476 -10.240327775609876 -3.337720042319623 -15.471899862698022 1 0 -28
3851 1296 4 0.4238 -9.76571043427602 -4.177552264762231 -15.208422625981568 1 0 20
5493 1843 4 0.4238 -12.57559018492795 -2.0802582463113657 -16.398711932620465 29 0 44
187 75 3 -0.8476 -8.960705802510457 -1.277922075789053 -14.393853046060672 0 0 -8
91 43 3 -0.8476 -8.410898177252106 -5.419496652988857 -14.764838271486965 46 0 -2
2295 777 4 0.4238 -7.787307354250039 -3.0821679904793884 -18.69976378627419 -19 0 -68
5909 1982 4 0.4238 -7.451925174827391 -0.7789323844124887 -18.343257145052522 0 -23 45
5132 1723 4 0.4238 -12.679512570958604 -0.9542703164129791 -14.349733393972294 0 14 0
188 75 4 0.4238 -8.778379348815688 -0.47036964772137285 -14.954760233645422 0 0 -79
2293 777 3 -0.8476 -8.192654131496667 -2.5777333113529894 -19.462154579391456 13 0 5
3919 1319 3 -0.8476 -6.916153888254561 -4.206840040375157 -17.747171658318884 0 -3 18
189 75 4 0.4238 -8.973633651447962 -1.0172452806948127 -13.428513165060318 0 0 100
2640 892 4 0.4238 -6.8763711159731375 -4.27680090058621 -14.610027581744035 0 1 -1
5131 1723 3 -0.8476 -11.8438778502148 -0.41396350133121956 -14.250823406697373 0 -8 0
5133 1723 4 0.4238 -11.083430459718445 -0.8928811732847236 -14.689409364689782 0 -56 0
3920 1319 4 0.4238 -6.561763440691132 -3.9957484120568103 -16.836211077502558 0 -41 25
5249 1762 4 0.4238 -12.660017526152195 -0.07859496005730573 -18.04154052960062 -66 0 -3
3921 1319 4 0.4238 -6.366067425994158 -4.93352603872767 -18.158672125403214 0 -2 -53
5237 1758 4 0.4238 -4.4013477176718565 -0.21622441600541598 -16.802171860604638 -54 0 1
2638 892 3 -0.8476 -6.154375579553019 -3.864902228038762 -15.165961571171202 0 1 -4
3309 1115 4 0.4238 -4.951561535972822 -0.7668503873079666 -14.616513218011606 0 0 -42
3307 1115 3 -0.8476 -4.828923724916173 -1.1525570347191423 -13.702078750546345 0 0 -4
2877 971 4 0.4238 -4.467499572629473 -4.769052983061322 -15.824287996391739 0 0 -62
2876 971 4 0.4238 -3.0329082352874686 -4.6824366295160385 -16.59957633836753 0 0 -45
2875 971 3 -0.8476 -3.852732244799213 -5.237483806368792 -16.458822841178524 0 0 38
2639 892 4 0.4238 -5.851077937156168 -3.0124854041789244 -14.74005520181534 0 1 -26
211 83 3 -0.8476 -0.2639973285289366 -4.5751105101697 -15.741792420768407 0 0 26
5236 1758 3 -0.8476 -5.104972722253797 -0.10877950129636586 -16.0997703580599 -13 0 -5
212 83 4 0.4238 -0.12701780914731495 -5.120144915819117 -14.914644214403475 0 0 -54
5021 1686 4 0.4238 -0.27813948451738274 -1.026982403500804 -13.375184399197588 0 0 0
4851 1629 4 0.4238 -2.7154291073136614 -0.17817866877680127 -18.43920482578037 0 2 -31
4838 1625 4 0.4238 -14.3390702313073 -19.245669039161434 -8.061207559306157 3 -113 0
3236 1091 4 0.4238 -19.112803343184897 -19.126571368936307 -7.773431426376788 13 104 0
4316 1451 4 0.4238 -17.677630338193524 -18.294035779908615 -11.534302024602358 51 1 -8
3443 1160 4 0.4238 -13.83303703229529 -17.41112761757879 -11.61933485830629 2 -29 0
488 175 4 0.4238 -17.868026411894917 -15.78942237639332 -8.853664598821906 1 -51 0
3444 1160 4 0.4238 -13.632357057920963 -17.83615439510287 -10.055459411090785 27 46 0
3442 1160 3 -0.8476 -13.539078326220816 -18.14172924628217 -11.003047787784984 22 -42 0
364 134 3 -0.8476 -19.085697696147662 -17.3801110661082 -12.02019058105952 -1 51 7
366 134 4 0.4238 -18.820128204271782 -16.800044466887773 -11.250128498032508 -45 16 -80
489 175 4 0.4238 -17.72597315051544 -15.126719509957805 -10.339353769241576 1 38 0
487 175 3 -0.8476 -18.361295947713945 -15.54004575747734 -9.687029476647943 1 -8 0
979 339 3 -0.8476 -13.7849719235955 -16.774264175898367 -8.403873167108319 24 8 -34
2312 783 4 0.4238 -15.282216339760659 -16.00799486732894 -7.811895877254355 8 0 -21
2311 783 3 -0.8476 -16.184357498893185 -15.594451498898032 -7.688919022579245 4 0 7
2313 783 4 0.4238 -16.67458766092295 -16.07426969341658 -6.961286529276612 4 0 13
5450 1829 4 0.4238 -17.7217277972327 -14.456870385960958 -7.0511906890158 0 -18 53
5147 1728 4 0.4238 -15.267355814150005 -13.839134381541292 -10.672416402369628 50 7 0
5146 1728 3 -0.8476 -16.009395500273804 -13.866497196239129 -11.34221446539907 -26 -9 0
280 106 3 -0.8476 -14.620340897551582 -13.510247935737585 -8.88184097354358 0 1 8
282 106 4 0.4238 -15.112927832249856 -14.238124148148527 -8.404813718811495 0 31 -54
980 339 4 0.4238 -13.470666969525219 -17.5528370160595 -7.860699145685245 -1 -25 -24
3645 1227 4 0.4238 -16.80960199518858 -19.197628886976002 -7.799048967302765 -1 2 19
4315 1451 3 -0.8476 -16.929245617800554 -18.59471136134175 -10.943103706559137 36 17 3
3235 1091 3 -0.8476 -18.460028563016692 -19.084365824179688 -7.01705596918706 -11 -6 0
4317 1451 4 0.4238 -16.06180124587394 -18.507194714590824 -11.432880855653933 13 49 -4
4837 1625 3 -0.8476 -13.584989579940581 -19.328368389094397 -7.409652182759012 25 -3 0
3643 1227 3 -0.8476 -16.08668761457608 -19.365859400186988 -8.469193211978014 -6 -33 -16
3644 1227 4 0.4238 -16.38632854801996 -19.049426396352963 -9.369240711184057 -32 -101 11
5449 1829 3 -0.8476 -18.018044945156632 -13.656982257748856 -6.529294769839438 -1 1 -34
5941 1993 3 -0.8476 -8.183820834695846 -19.443864621784886 -12.834153150495037 0 14 0
981 339 4 0.4238 -13.041731403583295 -16.11192240453958 -8.498199176342458 -12 -3 6
5529 1855 4 0.4238 -12.962860732651523 -13.58524489722612 -9.236646362608058 -4 4 4
5942 1993 4 0.4238 -7.617778386674242 -18.633560490116015 -12.682485123995388 0 70 0
3441 1159 4 0.4238 -11.180985560833223 -18.319080878253935 -11.500881676060951 0 7 31
3440 1159 4 0.4238 -9.753828380043823 -18.382794205776488 -12.291950391982843 0 -3 17
5640 1892 4 0.4238 -7.518321157401416 -14.487717202266936 -12.145735069112831 -37 0 35
3439 1159 3 -0.8476 -10.52828515167015 -17.79793844166754 -12.050784357564368 0 -22 13
5504 1847 4 0.4238 -10.634565883367518 -16.569691376727253 -9.864313192765463 0 -132 30
5528 1855 4 0.4238 -11.752857560051435 -14.673234470135409 -9.37375653524812 1 6 0
3516 1184 4 0.4238 -7.795566528975217 -16.253999175031055 -8.098737901200202 48 -62 0
5505 1847 4 0.4238 -10.926036093844674 -16.85702542991149 -8.283455585011593 0 -58 21
5503 1847 3 -0.8476 -11.07030396078505 -16.215491921524283 -9.036862239536081 0 7 39
2645 894 4 0.4238 -7.325022385382882 -13.639299783281396 -9.854285101718068 0 -35 1
2644 894 3 -0.8476 -7.908949519447637 -14.302277012266183 -10.322784247437053 0 -7 1
5258 1765 4 0.4238 -8.308640119680298 -18.05647644298221 -9.371253282231043 71 41 -15
3514 1184 3 -0.8476 -7.336466291497262 -16.557533571314217 -8.933659378499629 14 60 0
3515 1184 4 0.4238 -7.3711984056996585 -15.828329459333913 -9.61707366321579 -16 -8 0
5527 1855 3 -0.8476 -12.016613246567124 -13.721389739383273 -9.530043048346926 -1 -9 0
5257 1765 3 -0.8476 -8.804275076456811 -18.90858330516297 -9.203143630733363 11 -1 4
2646 894 4 0.4238 -8.867259654630981 -14.038359831362525 -10.21328679915903 0 12 1
3214 1084 3 -0.8476 -8.964475974919353 -15.069594270106936 -6.991003171371676 0 -4 0
5259 1765 4 0.4238 -8.563539054681256 -19.26138540849449 -8.2989438317964 78 -89 -15
1176 404 4 0.4238 -8.736532143067326 -13.125394446138579 -7.913024250127498 0 -2 0
2335 791 3 -0.8476 -10.764493834587373 -17.50266088472882 -6.71757732480185 0 6 8
3215 1084 4 0.4238 -9.878268212931195 -15.460984235151328 -7.09962247609063 0 -3 0
813 283 4 0.4238 -5.902282506236329 -16.75408702372206 -12.819210351129675 -4 -8 -4
811 283 3 -0.8476 -5.981641098178322 -17.698736331327638 -12.500870271346033 5 25 -2
3261 1099 4 0.4238 -2.297670105892984 -18.98830844138061 -12.64621501714626 0 -87 -19
3259 1099 3 -0.8476 -3.2070856543236443 -19.365018255722113 -12.822434296445993 0 -57 32
6017 2018 4 0.4238 -4.199381862658793 -16.103811034722057 -11.198206571871658 -9 0 0
6018 2018 4 0.4238 -3.1862091088998996 -14.903427113146005 -11.644509059910423 2 0 0
6016 2018 3 -0.8476 -4.142474385692203 -15.146604522793535 -11.481962172413043 28 0 0
1866 634 4 0.4238 -0.7579290415906393 -14.76214102615765 -11.27084212955808 -50 -11 0
4257 1431 4 0.4238 -5.675361310147449 -17.689505793576778 -9.254845070040249 0 4 0
4256 1431 4 0.4238 -5.414048398604677 -17.92125151060395 -10.850036589105576 0 11 0
4255 1431 3 -0.8476 -4.975231176456755 -17.814683990994805 -9.957801846818883 0 8 0
3415 1151 3 -0.8476 -1.8462525181070926 -16.43479078825019 -8.799609634310933 -8 2 0
87 41 4 0.4238 -0.8838979146161392 -13.114013510074344 -9.092963181237762 0 -37 -52
86 41 4 0.4238 -1.3810100185629803 -14.610801706032603 -8.669724298417655 0 -51 -9
85 41 3 -0.8476 -1.108727276076913 -13.7127534662091 -8.324222502488027 0 7 3
111 49 4 0.4238 -3.5952153713669137 -18.59789675716025 -9.175047918523692 0 -26 0
109 49 3 -0.8476 -2.8397168728705084 -19.042505630174674 -8.693856697028222 0 6 0
3417 1151 4 0.4238 -2.3556657992146754 -17.294558468329246 -8.763577498999766 5 -7 0
1864 634 3 -0.8476 -1.4476282144527488 -14.88659798132794 -11.984162220952978 21 8 0
1865 634 4 0.4238 -1.2287618055191576 -15.701483465080267 -12.52087364687446 -88 -18 0
1089 375 4 0.4238 -4.18943801369672 -14.273013878477293 -7.325989212319186 -14 2 -55
3416 1151 4 0.4238 -1.0573619092355389 -16.488877375661314 -8.187459659173324 -44 27 0
1087 375 3 -0.8476 -4.606707877278448 -15.180659393522157 -7.280527125451738 18 -84 0
1088 375 4 0.4238 -4.895220073550546 -15.461104644346548 -8.19601150685331 -38 -98 -34
1805 614 4 0.4238 -2.821588054747053 -19.222237588713366 -6.9024355717868735 39 40 -33
3080 1039 4 0.4238 -4.8526172232026195 -13.465427963551118 -11.905067858649048 0 14 25
3474 1170 4 0.4238 -0.332782975657026 -18.25078743784032 -11.728749941856359 0 -67 0
1231 423 3 -0.8476 -6.107706035081622 -1.6948346918705113 -0.06433146913533322 0 0 0
949 329 3 -0.8476 -0.7214252047554502 -19.625894527137476 -10.468655892209561 3 -16 -14
4241 1426 4 0.4238 -0.9336862227102806 -1.1668844272657943 -2.7966435298389074 0 0 0
5148 1728 4 0.4238 -16.25929609760238 -12.933477777295739 -11.601107549793522 51 -17 0
281 106 4 0.4238 -14.776404286987034 -12.640221962468742 -8.414187250487105 0 13 65
5037 1691 4 0.4238 -17.157584234640694 -10.24713820692851 -12.67490654451527 -53 19 0
1719 585 4 0.4238 -18.50547302769627 -12.278396121406303 -8.195714692903731 11 -65 0
1717 585 3 -0.8476 -18.455002555488818 -11.601737215445276 -8.930279976435536 12 16 0
2675 904 4 0.4238 -17.182003731799277 -11.38944380000534 -10.312128168606796 28 -21 0
3871 1303 3 -0.8476 -18.424246899456772 -9.08194424826411 -7.63469701035519 27 1 15
2676 904 4 0.4238 -16.159266815206784 -10.284128950253324 -10.943725178335558 -23 0 0
2674 904 3 -0.8476 -16.64648318531577 -11.139666914932025 -11.118868075599572 42 -1 0
3872 1303 4 0.4238 -18.023362189601972 -8.1660898598576 -7.612287000611863 23 18 8
4693 1577 3 -0.8476 -15.230025926192557 -7.322339552598851 -8.011725441728688 3 -14 1
5670 1902 4 0.4238 -15.369131006883961 -8.280322694381908 -9.385736336660102 -122 -31 0
4694 1577 4 0.4238 -15.422637263509037 -7.363707800465601 -7.03132196888239 -32 1 1
5668 1902 3 -0.8476 -15.250609673428805 -9.061937856833053 -9.998133655508461 -6 20 0
4936 1658 3 -0.8476 -14.811726783457049 -10.90608586549776 -7.7072692283908815 -49 30 8
4937 1658 4 0.4238 -15.052092748799014 -10.361360864913838 -8.510698679766781 -73 7 -1
5669 1902 4 0.4238 -14.275283248216073 -9.25040969689816 -10.113097869741878 -53 17 0
1718 585 4 0.4238 -18.370435637692044 -10.686870637171861 -8.535477417704918 -1 -11 0
4938 1658 4 0.4238 -13.865146121502544 -10.716044787244059 -7.446751533493071 4 13 16
3873 1303 4 0.4238 -19.253546254766352 -9.069213217020701 -8.193356587668672 34 -21 41
4491 1509 4 0.4238 -13.27737206031366 -7.831640806557297 -7.495505046428128 -47 9 0
398 145 4 0.4238 -10.110645358931619 -7.625311766461259 -12.813110500023877 0 0 -20
1516 518 3 -0.8476 -10.756715141124578 -9.278622507755378 -12.994635722722345 0 0 10
272 103 4 0.4238 -9.86831985618949 -12.226212395471215 -12.847679469438212 -56 -8 -60
4208 1415 4 0.4238 -7.3190554351546755 -9.516644961451703 -12.61453009019276 75 2 43
1517 518 4 0.4238 -9.928604565244244 -9.779026272250787 -12.741991797909703 0 0 -25
397 145 3 -0.8476 -9.463778164693286 -6.946930350352958 -12.464740639616817 0 0 30
399 145 4 0.4238 -8.595817264310401 -7.394143297708627 -12.248767088289116 0 0 -48
372 136 4 0.4238 -11.346026376472128 -12.809258297337266 -10.906202337738318 0 8 0
1174 404 3 -0.8476 -8.838991756236645 -12.132250715140568 -7.969305446439751 0 -14 0
1175 404 4 0.4238 -9.176445820221291 -11.781936464763382 -7.095575101750051 0 -54 0
4207 1415 3 -0.8476 -7.522097357712546 -8.591115003066564 -12.294892340112348 -47 0 -23