LAMMPS data file via write_data, version 23 Jun 2022, timestep = 7500000

6084 atoms
4 atom types
4000 bonds
1 bond types
2000 angles
1 angle types

-19.908796461002602 19.908796461002602 xlo xhi
-19.908796461002602 19.908796461002602 ylo yhi
-19.908796461002602 19.908796461002602 zlo zhi

Masses

1 22.99
2 35.423
3 15.999
4 1.008

Bond Coeffs # harmonic

1 517.63 1

Angle Coeffs # harmonic

1 37.9505 109.47

Atoms # full

2829 999 4 0.4238 -17.65050333425849 -17.182011055969916 -15.27851750250568 27 -53 -2
5179 1783 3 -0.8476 -14.917172795642859 -16.40203186786994 -18.647602403909467 0 3 -19
5180 1783 4 0.4238 -14.673279883845439 -15.77912225964999 -19.390906639967405 0 5 -129
978 382 4 0.4238 -15.930481761385838 -17.751429653379272 -18.515192595428005 24 -15 52
2658 942 4 0.4238 -18.57687764528713 -17.028959960730873 -17.895547586816498 7 15 91
2656 942 3 -0.8476 -18.308584858447183 -17.007150740969198 -16.932456665392152 -3 10 -9
976 382 3 -0.8476 -16.109037905003717 -18.7314883282664 -18.60238620827896 -48 5 24
2657 942 4 0.4238 -18.44221830542586 -16.08476762529697 -16.570030804059297 11 3 -12
5798 1989 4 0.4238 -18.292674965213187 -18.703706090107474 -16.450860081334575 52 35 35
3049 1073 3 -0.8476 -19.002392173432376 -16.129887783860635 -19.51640918341269 144 18 -51
5797 1989 3 -0.8476 -18.637848115035297 -19.638477695028314 -16.366850578805686 14 -16 -12
3050 1073 4 0.4238 -18.99324895990887 -15.25951516508517 -19.024100409235327 -49 4 7
977 382 4 0.4238 -15.404348614065507 -19.243655042326473 -18.111368618494087 112 14 -44
3352 1174 3 -0.8476 -17.81635643401225 -14.760448402104295 -15.310884305464993 12 0 -2
5003 1724 4 0.4238 -16.16419862781042 -14.951762339934639 -18.272020213236235 -66 0 -56
5529 1899 4 0.4238 -17.419492132533723 -19.752295380127062 -18.89708747831254 -35 28 -136
2827 999 3 -0.8476 -17.22937384980199 -17.546742834601393 -14.448082895464841 121 -31 -1
5004 1724 4 0.4238 -17.109692451555336 -14.551170195897075 -17.00229806140561 -13 0 -116
3353 1174 4 0.4238 -18.6205183742894 -14.65297592577968 -14.72627050380777 -4 0 17
729 299 4 0.4238 -16.90867916069518 -19.277488945593028 -14.180978381600083 101 -68 -1
5002 1724 3 -0.8476 -16.74683570891548 -14.239552845829099 -17.880495155560336 -4 0 -6
5181 1783 4 0.4238 -14.157656911369338 -16.461541602419683 -17.999840871510607 -3 -2 -27
3793 1321 3 -0.8476 -12.82156191276285 -16.151519287763822 -16.89796309243409 0 23 14
3795 1321 4 0.4238 -12.243324139006505 -15.858021930201412 -17.659212337618428 0 -9 23
1816 662 3 -0.8476 -12.190391719373837 -18.844643854846176 -16.00691846624099 -2 0 -15
3794 1321 4 0.4238 -12.773393456904435 -17.146210191561973 -16.807024549382323 0 32 -32
1253 474 4 0.4238 -12.176355024260081 -19.014035186273986 -17.64250427346677 0 -50 19
1252 474 3 -0.8476 -11.915219494378524 -19.118543861868933 -18.602132429009274 -16 -8 -9
3316 1162 3 -0.8476 -10.820883522599976 -15.880762118206995 -18.847450295086368 54 32 9
1448 539 4 0.4238 -10.363571086946033 -16.778523702873372 -16.503510352433853 51 -5 -22
1447 539 3 -0.8476 -9.733762941163615 -16.42809664723302 -15.810298460141532 129 1 34
1449 539 4 0.4238 -10.210892720184374 -16.351251317189412 -14.934831041406579 -47 -12 38
1818 662 4 0.4238 -11.267827187850823 -19.19121152840652 -15.837314187920224 -64 26 20
1817 662 4 0.4238 -12.618516740990904 -18.597196250492832 -15.137735685961111 36 -5 -22
3317 1162 4 0.4238 -10.657668074122318 -14.92604649051758 -19.096204804715942 -236 -24 -27
3318 1162 4 0.4238 -10.222994080816179 -16.472876755809583 -19.387754365022616 -105 -29 -35
5866 2012 3 -0.8476 -9.309202030669502 -19.82777884985234 -19.02057353577569 0 0 7
5945 2038 4 0.4238 -9.04766772116215 -19.14024849328806 -15.573395776954472 5 18 9
1254 474 4 0.4238 -11.042359060498123 -19.603169364061564 -18.6591657615586 0 -90 42
5944 2038 3 -0.8476 -9.824443675442183 -19.59007969598311 -15.132633256360686 -2 3 5
5193 1787 4 0.4238 -12.96227206721168 -14.736643547655687 -15.869119064539447 36 0 -1
5867 2012 4 0.4238 -9.189510790051974 -18.97500200544801 -19.528949670139614 0 -5 -42
1658 609 4 0.4238 -13.925670528533066 -16.698454686832353 -14.284149559465392 162 22 0
5037 1735 4 0.4238 -8.557083877284098 -15.12423915190884 -16.464628410828773 0 0 -123
297 155 4 0.4238 -7.98236289228084 -17.496136232408382 -15.723398555555724 0 -6 8
296 155 4 0.4238 -7.014963785611592 -18.003151485945573 -16.937359428991854 0 39 11
295 155 3 -0.8476 -7.424469159716471 -18.254556422466088 -16.06037543196083 0 10 -5
4270 1480 3 -0.8476 -4.859911740529174 -16.164950639429193 -15.732699035852363 55 -16 -32
2469 879 4 0.4238 -5.572381169303049 -16.934664483479363 -17.42802989871072 0 24 68
2467 879 3 -0.8476 -6.060224364685078 -17.347449517326744 -18.197197410268327 0 51 2
2279 816 4 0.4238 -3.7148956762559284 -15.610402930066055 -16.94045537742832 0 13 15
4271 1480 4 0.4238 -4.138752252187486 -16.66212791620743 -15.250262688553997 15 16 -140
4272 1480 4 0.4238 -5.316368123264675 -15.541072639678989 -15.09832903232322 82 -33 -33
2468 879 4 0.4238 -6.323820682157872 -16.633879639209724 -18.846301468542585 0 13 29
1696 622 3 -0.8476 -3.332161878682615 -18.08318917800719 -14.636918852309138 0 -10 45
2243 804 4 0.4238 -6.427958304340145 -19.32521603398177 -15.293643459422048 0 25 0
5454 1874 4 0.4238 -6.294048983434751 -18.968755184041502 -18.77100730811344 -8 77 -80
2020 730 3 -0.8476 -6.922414151400435 -14.840232029784268 -19.610791204569168 16 0 -10
2280 816 4 0.4238 -3.140062759219511 -15.087760264157088 -18.37678380004107 0 20 43
2244 804 4 0.4238 -4.84319959571996 -19.01433137348122 -15.051740440642176 0 14 0
2278 816 3 -0.8476 -2.915930949776385 -15.589790572320075 -17.541480870272046 0 35 -16
2242 804 3 -0.8476 -5.567845746314779 -19.69464041457845 -14.941887772651185 0 33 0
5035 1735 3 -0.8476 -8.026898321068805 -14.301527253096582 -16.259571262613186 0 0 -53
5452 1874 3 -0.8476 -6.307897900496403 -19.896438402135402 -19.14411866553271 -1 -25 -26
1869 679 4 0.4238 -2.723394835348035 -17.188792207269028 -18.10924447866645 0 -5 -15
1697 622 4 0.4238 -2.4522941728339935 -18.3449937392841 -15.033518888094855 0 28 88
1868 679 4 0.4238 -2.1386640999187434 -18.701848118213757 -17.92115175533982 0 -26 1
1867 679 3 -0.8476 -2.5726219968284822 -18.067931363437086 -18.561332093483976 0 -2 8
430 200 3 -0.8476 0.7363660997552828 -17.825937767890874 -19.422975055291857 0 0 -58
1951 707 3 -0.8476 0.9377012200943182 -15.462384796660134 -15.144890935348693 8 -13 -24
1952 707 4 0.4238 1.2494759692389656 -16.165191237532 -15.78431227170887 -14 2 12
5558 1909 4 0.4238 1.6779565890163137 -17.52698014109568 -17.66739293548029 -20 29 36
5557 1909 3 -0.8476 2.082816967157822 -17.126943032472 -16.84516522724126 7 32 -109
2158 776 3 -0.8476 -1.4614536969767549 -19.81265913121935 -16.332207770361332 0 -14 0
5645 1938 4 0.4238 2.4832575453053805 -14.438574355719595 -15.211726976128295 -41 34 54
2625 931 4 0.4238 0.8086174727363635 -14.554081742826176 -19.782726081990667 0 0 24
1035 401 4 0.4238 2.779588917618348 -18.837311660408282 -15.941194809432718 -4 72 1
2160 776 4 0.4238 -0.5759192170350661 -19.90601900347014 -15.877110650638002 0 68 -20
431 200 4 0.4238 -0.17112236298529768 -18.24565124664881 -19.440447652048167 0 -3 28
2439 869 4 0.4238 -1.5551992405788895 -14.282809600438181 -16.57110860504594 0 0 71
2624 931 4 0.4238 1.0096808260322565 -16.170452701268946 -19.899108886053646 0 0 6
5559 1909 4 0.4238 2.8844107939562793 -16.585195692419564 -17.09806280075069 11 -15 -178
1033 401 3 -0.8476 2.918859385963026 -19.667325438650348 -15.401119275081886 0 25 1
3358 1176 3 -0.8476 4.105810181319585 -15.798312845517797 -18.11188612519472 0 -39 5
4555 1575 3 -0.8476 6.542397617187328 -18.612577286792966 -17.24671320545922 -8 -1 4
4556 1575 4 0.4238 7.441228491393291 -18.956366100957496 -16.97484497093128 -8 -18 52
4557 1575 4 0.4238 6.57510858097984 -17.615836067750557 -17.320448840260912 -27 -37 16
3359 1176 4 0.4238 5.006254264888145 -15.964434302407867 -17.709884509717803 0 6 27
5863 2011 3 -0.8476 6.569405292191457 -15.538231897571706 -16.83920303835674 0 0 0
5865 2011 4 0.4238 7.19317986864823 -15.023974719600206 -17.427798697100677 0 0 3
5864 2011 4 0.4238 6.44160561235876 -15.045917127307561 -15.978219043577147 0 0 -9
3360 1176 4 0.4238 4.059796708043645 -16.225946327491574 -19.014666772786217 0 24 25
1930 700 3 -0.8476 6.140348654011105 -19.59495767218163 -14.660443784655929 -6 14 0
4073 1414 4 0.4238 5.714258973567955 -19.483434595631174 -18.523715567992475 0 -98 1
1932 700 4 0.4238 6.020507351305725 -19.305690264010998 -15.61016126582454 15 90 0
4072 1414 3 -0.8476 5.161425805506388 -19.625952599549166 -19.344730474108758 0 69 -12
223 131 3 -0.8476 6.7823456605414965 -14.473161490270385 -14.369116016106585 13 78 -11
583 251 3 -0.8476 8.479960004807868 -14.417552154214576 -18.868250306965557 -16 71 0
1931 700 4 0.4238 5.272634089659742 -19.502958769293702 -14.171968600271992 9 30 0
2492 887 4 0.4238 10.827470829602724 -17.411666253500325 -17.359782231465132 -24 -45 62
2491 887 3 -0.8476 10.851763476108776 -18.3632712833059 -17.66614546637796 -6 -16 0
5878 2016 3 -0.8476 11.510063326676828 -15.767215105394433 -16.859875928806385 0 -2 -18
5880 2016 4 0.4238 10.86728447324018 -15.32234929212861 -16.236233292346185 0 -23 -41
3887 1352 4 0.4238 13.032384195592686 -16.629950048984135 -16.56290761884153 -33 42 -16
3886 1352 3 -0.8476 13.885518683322719 -17.14787697837451 -16.62547054880285 27 15 39
3130 1100 3 -0.8476 9.578101926273074 -15.788038741627325 -14.402630817198505 12 -7 -21
342 170 4 0.4238 13.4304045816243 -14.796483380697321 -15.970504843981962 173 -85 0
5879 2016 4 0.4238 11.699084679286173 -15.16070774415933 -17.63215859533051 0 -1 -70
2493 887 4 0.4238 10.074804229474733 -18.858505315180405 -17.277457203831013 -35 7 -24
4670 1613 4 0.4238 11.587169743120954 -18.196568882336884 -19.56888062991195 0 11 -17
3888 1352 4 0.4238 13.957765237964656 -17.766890853660477 -15.84342002628645 137 77 14
6012 2060 4 0.4238 12.16638067333558 -19.775256977902554 -17.664714907534194 -22 1 1
3132 1100 4 0.4238 8.59480627441694 -15.803801817833985 -14.583963803501657 37 -17 -57
340 170 3 -0.8476 14.34479591954197 -14.551533220257427 -15.648187611773212 -6 35 0
3480 1216 4 0.4238 15.069003463441675 -16.891047404215236 -18.008798018276728 3 -3 -14
3478 1216 3 -0.8476 15.51759877303749 -16.39774891512056 -18.754063169760926 4 -17 52
3479 1216 4 0.4238 16.494706651171935 -16.61049550361384 -18.753975295550834 28 -3 88
2860 1010 3 -0.8476 17.43646471787574 -17.05600184505526 -15.7687721448852 5 8 5
2862 1010 4 0.4238 16.785537005411694 -16.78923696083852 -15.058046660912952 -19 5 -35
2861 1010 4 0.4238 18.035703775758233 -17.775971727052585 -15.418691239335153 -100 0 12
969 379 4 0.4238 18.149506641292085 -16.967796583907496 -17.584537107162216 -2 -70 -51
967 379 3 -0.8476 18.26195444735913 -16.61793976923846 -18.514567548421493 43 -50 27
5752 1974 3 -0.8476 18.898340916741546 -19.417541133220478 -14.923125268701819 71 -39 18
968 379 4 0.4238 19.191018113389955 -16.265903841994707 -18.628197803058896 -32 -10 62
1734 634 4 0.4238 15.713910432695084 -14.613499982790623 -18.751662102681276 -2 0 -6
5754 1974 4 0.4238 19.72852681091247 -19.76403223574209 -15.359857843042926 72 9 82
4706 1625 4 0.4238 14.982642709428793 -19.084434544507697 -19.29985233739522 -36 0 -88
2726 965 4 0.4238 15.297829351706616 -15.50015543460956 -14.586448860215134 73 29 2
341 170 4 0.4238 15.009922201036753 -14.71491435479564 -16.376826296913627 62 125 0
114 94 4 0.4238 17.207454957733475 -19.60386628908191 -14.311560087198895 0 39 54
3354 1174 4 0.4238 -17.137801527750923 -14.064612504013235 -15.075563717101216 -35 0 -83
2257 809 3 -0.8476 -16.64250867771875 -11.582792752288158 -18.244755320141476 -64 0 -32
2535 901 4 0.4238 -16.577209112918922 -10.338442368774674 -16.981378016570304 -58 -10 -34
2259 809 4 0.4238 -16.554809284811277 -12.564561631117288 -18.076117325857773 37 13 29
2258 809 4 0.4238 -17.339333040222503 -11.425746696289778 -18.944592726909473 107 49 -228
3884 1351 4 0.4238 -19.19062790202325 -12.866451136290207 -18.727621150689444 4 -9 -70
3883 1351 3 -0.8476 -19.60960728115484 -13.629467925614003 -18.235419511438778 -1 -12 -31
2109 759 4 0.4238 -14.811431083445454 -11.291184433404926 -18.77107491366483 1 0 88
3827 1332 4 0.4238 -19.000494682692935 -10.293149186851164 -17.506362523860044 91 0 0
2533 901 3 -0.8476 -16.555945034680647 -9.53604171575688 -16.384970219545462 7 22 -2
3826 1332 3 -0.8476 -19.717731300075897 -9.596320607791183 -17.505019497525797 -13 0 0
2534 901 4 0.4238 -16.37154493218762 -8.719228761363171 -16.931609282897327 134 -38 -76
5882 2017 4 0.4238 -17.52802607937569 -9.00164657130179 -14.868863822575404 45 0 0
2193 787 4 0.4238 -15.350591035254155 -10.337429384136334 -14.77774918222878 76 -8 84
1150 440 3 -0.8476 -16.410043674446342 -12.906999641003145 -14.306363346129261 37 -9 3
1152 440 4 0.4238 -16.09754113037607 -11.95885564193573 -14.364382810507674 19 -8 22
4814 1661 4 0.4238 -14.572140423418759 -8.55393012158277 -17.74479535501082 89 1 -32
5192 1787 4 0.4238 -14.336911614073582 -13.880411882710519 -16.078546739565056 26 0 -3
2107 759 3 -0.8476 -13.921052681228732 -11.135837027070552 -19.19897011303944 1 0 -9
5191 1787 3 -0.8476 -13.404896952756424 -13.852904223140815 -15.7171715779426 1 0 0
1364 511 4 0.4238 -12.754206284081551 -11.394659229549225 -17.660008347148366 4 18 -38
1363 511 3 -0.8476 -11.994386078312841 -11.943465311365447 -17.311459662486016 -76 -26 -8
1365 511 4 0.4238 -12.34745899819358 -12.65044455168209 -16.698662024485863 1 -8 103
961 377 3 -0.8476 -10.46351312996041 -9.966694853503801 -16.029055856326977 44 -2 5
962 377 4 0.4238 -10.991431573902943 -10.754425519048732 -16.346520432076147 -40 8 46
963 377 4 0.4238 -11.087872654410788 -9.231460178058821 -15.765226199182969 -38 -7 -53
1847 672 4 0.4238 -9.420401046925495 -12.633830207608371 -19.261458570968877 0 0 126
5592 1920 4 0.4238 -9.08363294272041 -9.729394606882483 -17.03630217331283 -63 16 35
1846 672 3 -0.8476 -10.343997604450015 -12.984281791258562 -19.416873298341518 0 0 6
1848 672 4 0.4238 -10.961242660054344 -12.617285560787021 -18.720939836207755 0 0 -2
816 328 4 0.4238 -9.241517465780994 -10.479194164642937 -15.006139063746623 -40 0 0
4813 1661 3 -0.8476 -13.75102716852179 -9.028954644279585 -17.42837042449728 -33 1 26
2108 759 4 0.4238 -13.654747472298595 -10.179737084219525 -19.07668016427751 1 0 4
4815 1661 4 0.4238 -12.941331526856368 -8.591862770858317 -17.81996168458078 -8 1 -26
814 328 3 -0.8476 -8.575392532650271 -10.557700697711965 -14.264441050796917 44 0 0
2022 730 4 0.4238 -7.359518987922726 -13.99018681277025 -19.316916215116994 10 11 54
5036 1735 4 0.4238 -8.386152499463245 -13.871282705120882 -15.431425089899747 0 0 -18
5590 1920 3 -0.8476 -8.25931681858363 -9.84704793952115 -17.59007166801173 -3 -26 35
5591 1920 4 0.4238 -7.519943687102037 -9.291725116266695 -17.209356604769 23 -89 52
4769 1646 4 0.4238 -7.895504712128406 -11.345235946578075 -18.34357177916423 0 -8 11
2256 808 4 0.4238 -4.958701029540655 -13.176427066597949 -17.230271014608572 0 23 9
2254 808 3 -0.8476 -5.532645612116252 -13.083464175459163 -16.416670630434012 0 51 7
4768 1646 3 -0.8476 -7.773875652314819 -12.297244424370142 -18.624438802450975 0 -7 19
4770 1646 4 0.4238 -7.714246962202445 -12.87904916020483 -17.813299056347912 0 -1 6
2255 808 4 0.4238 -6.37017952208235 -13.616453298760273 -16.53692227607511 0 15 19
1106 425 4 0.4238 -5.662743130885881 -11.928681432318799 -15.204154985800384 0 52 -27
4099 1423 3 -0.8476 -5.788174885103335 -9.04130240027735 -16.67044110674939 0 0 0
4100 1423 4 0.4238 -5.350554734597828 -9.464461052128529 -17.463804616606186 0 0 5
547 239 3 -0.8476 -4.990580816633975 -9.407012850797816 -19.480054788141743 0 9 -30
1107 425 4 0.4238 -5.842631704319297 -10.33383630386722 -14.902931441588503 0 78 -16
1105 425 3 -0.8476 -5.938782154047346 -11.252888384693636 -14.520703239696662 0 110 20
750 306 4 0.4238 -7.847623283109312 -8.744114210494189 -18.995110885817752 1 10 -29
549 239 4 0.4238 -5.91484261184205 -9.025607728980702 -19.496495187673833 0 4 6
815 328 4 0.4238 -7.716901579051862 -10.922678158658668 -14.624698221409147 79 0 0
4101 1423 4 0.4238 -5.093995308910866 -8.595989297633881 -16.104922419306195 0 0 0
548 239 4 0.4238 -4.3321581171037575 -8.677396551156443 -19.295285690013326 0 -2 -88
2438 869 4 0.4238 -0.47840150997536607 -14.09319088139978 -15.35818731170967 0 0 16
2437 869 3 -0.8476 -1.0710357363927143 -13.614692086638629 -16.00612605024272 0 0 0
4887 1685 4 0.4238 -0.21192294939927506 -13.615543127872323 -17.817938822723622 0 -22 12
4886 1685 4 0.4238 1.339448208656336 -13.10900977607766 -17.760509953839765 0 3 -97
4885 1685 3 -0.8476 0.5586226164618461 -13.281718033542576 -18.360912786210626 0 60 -27
5471 1880 4 0.4238 -0.3506039524171693 -9.8661139229263 -17.653704062291528 0 3 -51
2321 830 4 0.4238 -1.8830305189554215 -8.864065426900266 -16.341023541837888 0 -19 17
5470 1880 3 -0.8476 -0.5475726133732779 -10.21117539517819 -16.73602427460192 0 -4 28
2961 1043 4 0.4238 -0.4449130055642737 -10.113892579388217 -14.71020288882944 7 0 12
5341 1837 3 -0.8476 1.9941798663264827 -10.028671395505912 -19.141954184679115 0 -15 -7
5472 1880 4 0.4238 -0.3959263222701791 -11.19931387881879 -16.711817498607218 0 -1 -133
5342 1837 4 0.4238 2.269912360313627 -10.843720088508917 -18.63237835583022 0 23 12
3323 1164 4 0.4238 0.11308752250821694 -12.136086838552394 -19.64484712005572 0 0 -97
5343 1837 4 0.4238 2.7263809688412337 -9.348611730373229 -19.10451637244041 0 38 7
717 295 4 0.4238 3.8480152138536767 -14.098324301512193 -17.858688429160715 16 0 -4
5644 1938 3 -0.8476 3.1898945828672054 -13.89171688779251 -14.762714544431637 7 -117 25
716 295 4 0.4238 3.5231858219835575 -13.18124887864593 -16.547168305674745 -118 0 9
715 295 3 -0.8476 3.583800409559932 -13.18618992460099 -17.545317328798102 -15 0 -27
5271 1813 4 0.4238 4.990726243258557 -11.993107161664527 -18.147652022894174 0 0 18
5269 1813 3 -0.8476 5.722418158019963 -11.314346573982245 -18.08510498124987 0 0 2
825 331 4 0.4238 7.835124850495814 -10.381921493717348 -18.127756646355387 -16 25 55
5270 1813 4 0.4238 5.45039158950842 -10.588236755225717 -17.453624925088313 0 0 -119
1517 562 4 0.4238 4.190961229768936 -10.130857735399816 -15.566710771238254 0 126 -30
1516 562 3 -0.8476 4.587452332997556 -9.442358303524207 -16.173969675775176 0 20 6
1518 562 4 0.4238 5.333738735853753 -8.972323592537284 -15.702669347979512 0 -60 78
563 244 4 0.4238 3.5209851032841377 -12.214416780257931 -14.700052748182863 -44 0 111
562 244 3 -0.8476 3.926284110639083 -11.32692832907252 -14.4807424497783 -4 0 61
4172 1447 4 0.4238 6.410662314672197 -12.332065768234719 -19.694712075722176 21 -71 -34
585 251 4 0.4238 8.284840727488348 -13.94784137822853 -19.729238297663386 46 -15 -6
584 251 4 0.4238 9.165970130579725 -13.901681143328165 -18.35515426787105 43 21 21
824 331 4 0.4238 9.323797801311414 -9.81493235713577 -17.7685872273303 18 -4 149
823 331 3 -0.8476 8.747551055140072 -10.631466277622907 -17.803402166297612 39 6 51
2801 990 4 0.4238 13.624059757333637 -13.632146871976595 -18.674822934030704 7 0 -96
2800 990 3 -0.8476 12.730854722384692 -13.886522590705411 -19.04560488733829 -11 0 2
1478 549 4 0.4238 9.628339253391998 -12.022229773323803 -17.27272209256699 0 0 22
1479 549 4 0.4238 10.336725224373932 -12.900553115048249 -16.092313721433758 0 0 67
1477 549 3 -0.8476 10.161239483344529 -12.84503834325328 -17.075229223523003 0 0 -50
4218 1462 4 0.4238 11.951470048682236 -10.692386178220536 -17.74359592498834 43 17 -162
4216 1462 3 -0.8476 12.114067485044055 -9.806450661659223 -17.30922242093434 24 -22 47
4217 1462 4 0.4238 12.623412600592921 -9.940487966297136 -16.459162669166354 12 59 -53
2802 990 4 0.4238 12.253529144993564 -13.06524701811533 -19.358122160656755 -10 0 48
5311 1827 3 -0.8476 13.345825817260863 -10.291770979562271 -14.888558026202158 -1 0 19
2561 910 4 0.4238 10.114677990979104 -11.701737433475317 -18.836654737724107 -68 4 -65
5312 1827 4 0.4238 13.374598989274636 -11.19148873617048 -14.453035247716949 -16 0 46
1713 627 4 0.4238 13.883258144606321 -13.3941827134589 -14.618647135708995 105 0 0
3499 1223 3 -0.8476 10.929693664470728 -13.214657066228806 -14.285114687133492 -57 5 14
2560 910 3 -0.8476 10.677238014767166 -11.516862978021955 -19.642475848190827 -31 -4 -41
989 386 4 0.4238 10.864598278188248 -8.742655121381862 -17.626250596478684 -21 4 -82
3500 1223 4 0.4238 11.905563961640501 -13.415452888079178 -14.370896770119192 -17 -47 102
5313 1827 4 0.4238 13.018129239122299 -9.613445650547224 -14.23091852347037 -15 0 0
2906 1025 4 0.4238 19.875240362142005 -12.939496191826908 -14.903984611757556 10 0 23
3885 1351 4 0.4238 19.609941915576368 -13.274410905779058 -17.516894083938745 -5 3 51
3828 1332 4 0.4238 19.34080658022955 -9.90038743738331 -16.929363296369036 77 0 0
2447 872 4 0.4238 19.24369693518289 -9.683355290269544 -19.012476335930785 -60 0 51
1733 634 4 0.4238 16.1488302735641 -13.04478801115686 -18.880557400574528 8 0 -17
1732 634 3 -0.8476 15.41562462291597 -13.669353047921906 -18.61161870968377 11 0 -38
502 224 3 -0.8476 18.531177862111807 -9.889906331289792 -15.336154239803843 69 12 -4
2907 1025 4 0.4238 19.40012041771734 -11.551974158935806 -15.622086461899597 -158 0 126
2905 1025 3 -0.8476 19.727715031190566 -12.483243667175355 -15.781521105435898 -43 0 -28
4865 1678 4 0.4238 15.038509402591606 -9.829995916659811 -14.861568530504234 0 82 -17
504 224 4 0.4238 17.577356111357762 -9.613792757480642 -15.454417186929996 112 -15 38
4864 1678 3 -0.8476 15.981878567460523 -9.524904140286724 -14.73128558079298 0 -14 13
701 290 4 0.4238 15.587989410032204 -9.528545677231884 -18.95147289280877 134 23 44
3464 1211 4 0.4238 15.98358714666946 -8.815169449972922 -16.37495009607216 84 0 -69
503 224 4 0.4238 18.70653711007447 -10.077328965022723 -14.369653732407615 -173 121 -18
1348 506 3 -0.8476 17.282527221655574 -12.18142295065284 -19.671034789643493 119 8 -18
1350 506 4 0.4238 17.885856894083 -11.386714126901367 -19.737602214102246 -163 18 50
700 290 3 -0.8476 15.283895500159502 -9.990098707728826 -19.784837484347566 40 6 -5
3463 1211 3 -0.8476 15.844796154851783 -8.57921700447252 -17.336752937065647 15 0 -38
4138 1436 3 -0.8476 -15.652701440381106 -3.130343465190973 -16.119214374856927 -13 -1 -54
1025 398 4 0.4238 -15.075056779737226 -5.031933765524031 -15.955007718357272 0 0 -12
1024 398 3 -0.8476 -15.19254977650132 -6.024611545658553 -15.926953275764255 0 0 -10
1026 398 4 0.4238 -15.379359361268996 -6.311720077328899 -14.987446902122208 0 0 0
3808 1326 3 -0.8476 -15.969057224164356 -7.332568017877045 -17.92679920463407 4 8 51
3810 1326 4 0.4238 -15.532023150868326 -6.812694912928482 -17.19281461227646 3 43 -68
4891 1687 3 -0.8476 -18.964972214073217 -6.665667137099228 -17.924460605287855 -4 38 9
3809 1326 4 0.4238 -16.61166557824975 -6.742854768450475 -18.41597490773292 19 7 -12
4893 1687 4 0.4238 -18.33589652656558 -5.940833495548672 -18.205317435997024 -29 -62 3
3922 1364 3 -0.8476 -17.076013875111485 -5.2343208311395575 -19.42082960347565 -48 -12 5
4892 1687 4 0.4238 -18.725476681806743 -7.515376332417701 -18.39417989927698 33 52 11
2689 953 3 -0.8476 -19.60137416133399 -3.3498843156386293 -14.866457867104305 23 0 0
3546 1238 4 0.4238 -19.438473546969956 -6.984143793727144 -14.629759877351196 47 0 0
4139 1436 4 0.4238 -16.39255157173608 -2.8381166492554537 -15.513223127557108 -13 -1 20
3545 1238 4 0.4238 -19.491922333797408 -6.438643440756473 -16.168005335118046 78 0 0
3544 1238 3 -0.8476 -19.847117408444227 -6.307654313329443 -15.242436137657641 -40 0 0
2691 953 4 0.4238 -19.793093754829467 -4.291140208248125 -15.144453990440589 46 0 0
3924 1364 4 0.4238 -16.192392319131812 -5.114726230998493 -19.873499571675165 115 -26 -35
5881 2017 3 -0.8476 -17.77298216048741 -8.235234757433544 -14.275053633379331 28 0 0
2713 961 3 -0.8476 -11.68354697227422 -8.060334966740513 -18.694171900694432 -6 0 -87
2715 961 4 0.4238 -11.846661647525378 -7.735336985425323 -19.62571376601738 1 0 -16
1963 711 3 -0.8476 -12.302230279913998 -7.856664123592085 -15.162946375079214 18 0 24
1965 711 4 0.4238 -12.890552390479764 -8.057137306842995 -15.94632900340836 27 0 -4
2714 961 4 0.4238 -10.715561205368157 -7.951619253332068 -18.467931142642847 8 0 -40
1920 696 4 0.4238 -11.26022918819317 -4.036956313537329 -16.952536626560182 0 0 -72
1918 696 3 -0.8476 -10.678184746451482 -4.804630254869675 -16.68439155293471 0 0 13
1919 696 4 0.4238 -10.571711056382975 -4.810784605415088 -15.690094796456572 0 0 112
2133 767 4 0.4238 -9.740871576189909 -6.060202211623721 -17.285367097833543 -53 25 -12
2131 767 3 -0.8476 -9.267732770104569 -6.8359924215959404 -17.702848451467577 -9 13 0
1964 711 4 0.4238 -12.145047308177514 -6.87063278804335 -15.107844736677215 45 0 -9
323 164 4 0.4238 -9.107525471487842 -3.6893373790339363 -17.135993238509236 0 0 -69
4853 1674 4 0.4238 -13.86103864226267 -3.102393682925441 -14.59128641616066 -19 0 -2
2132 767 4 0.4238 -8.791570525875807 -6.531327938853047 -18.527741952739884 -3 -21 0
3329 1166 4 0.4238 -14.229343758430396 -7.269203193731068 -19.764029446834282 14 -5 -29
2322 830 4 0.4238 -3.0211972649169274 -7.754620704984615 -15.966409120361506 0 91 -88
829 333 3 -0.8476 -5.237989237595737 -4.431925881609933 -18.768795022065706 0 -2 2
830 333 4 0.4238 -6.083257991411853 -4.289908150679451 -19.283918331704623 0 -1 4
831 333 4 0.4238 -5.360039626548838 -4.105519613204649 -17.831478110424953 0 4 -4
4327 1499 3 -0.8476 -5.622012562482711 -5.340436968334616 -15.921951840601176 27 9 73
322 164 3 -0.8476 -8.1952202754574 -3.4725864533657003 -17.483438922017065 0 0 64
4478 1549 4 0.4238 -4.103972516970964 -4.08828313531517 -15.835462780222345 0 0 47
4328 1499 4 0.4238 -6.23606529543699 -5.79223933326075 -16.569110414399738 -127 9 -178
4477 1549 3 -0.8476 -3.3421339772481615 -3.475190123314848 -15.62637060283202 0 0 109
1266 478 4 0.4238 -4.600031063872561 -5.819404414247773 -19.319319292396155 0 -1 8
4329 1499 4 0.4238 -5.911471767637401 -5.547801507077107 -14.987492199989012 -111 -66 30
1264 478 3 -0.8476 -4.004349997286502 -6.586235821072995 -19.558345899351416 0 -1 5
5461 1877 3 -0.8476 -4.080120631726307 -7.872538971429215 -14.48072413873391 0 -36 0
1265 478 4 0.4238 -3.0638327119636086 -6.372655324833117 -19.294128879314076 0 -1 16
324 164 4 0.4238 -7.712498067157465 -2.901832107669176 -16.819195786762737 0 0 -65
748 306 3 -0.8476 -7.540465642421931 -8.118661276750714 -19.712372103372026 1 -40 -55
5463 1877 4 0.4238 -4.359002371245916 -6.921401665528741 -14.348197354072314 0 -1 0
1737 635 4 0.4238 1.0742041802910172 -8.514081905812395 -19.30414751609094 0 -33 10
2320 830 3 -0.8476 -2.491482245907922 -8.16172871914745 -16.710496414904316 0 21 -30
1719 629 4 0.4238 -1.8739206142892026 -7.002794013118677 -17.792805597497694 0 50 44
1735 635 3 -0.8476 0.49934505522485806 -7.773940709554091 -19.653042947864627 0 12 -1
5376 1848 4 0.4238 -0.7509185361379511 -7.005593184803369 -15.92063868360579 0 0 13
5374 1848 3 -0.8476 -0.5129360748054967 -6.851374345134628 -14.961690793774224 0 0 -15
2027 732 4 0.4238 0.4114299299051883 -3.902153562714835 -14.789002299235461 0 -59 16
2767 979 3 -0.8476 0.38113358906507844 -4.263710657614521 -17.59756162884477 0 0 -18
2769 979 4 0.4238 -0.36173306470747585 -4.828493383171265 -17.956964356251866 0 0 7
1718 629 4 0.4238 -0.7507862635679916 -6.873347809345209 -18.971126193931386 0 102 -133
1717 629 3 -0.8476 -1.4004898089645683 -6.36787903426303 -18.403335124051537 0 -48 -72
2768 979 4 0.4238 1.2567702947319055 -4.713763021648634 -17.772815981644783 0 0 -32
5862 2010 4 0.4238 2.3342814819631883 -5.688425878465951 -19.34259108631096 17 0 -95
5860 2010 3 -0.8476 2.7967040997288275 -5.410467273304527 -18.500626466641645 39 0 -4
5931 2033 4 0.4238 -1.044787799930855 -5.031577267332725 -19.89879148613681 0 1 -94
5375 1848 4 0.4238 -0.28936731248147907 -7.724817852071644 -14.529124018041086 0 0 18
2028 732 4 0.4238 0.18419761941567628 -5.418331606276558 -14.226689115545136 0 12 12
1905 691 4 0.4238 -0.5640443855344167 -2.9329547696347116 -17.22878529858501 0 8 68
885 351 4 0.4238 3.9967795341487036 -8.449710875118726 -17.531102733137434 0 0 -1
5861 2010 4 0.4238 3.426329138960704 -4.659207056181725 -18.698566992440927 21 0 2
883 351 3 -0.8476 3.599897944638502 -7.987720461312983 -18.324230249855567 0 0 -14
884 351 4 0.4238 3.3515514856442095 -7.051668879755865 -18.074966621148974 0 0 12
3982 1384 3 -0.8476 6.322448280674636 -7.594302944317441 -15.471781968102764 -9 5 -36
2841 1003 4 0.4238 3.956340971733861 -5.468223032083623 -16.80113867261487 0 0 31
2839 1003 3 -0.8476 4.811429171592343 -5.484963006389151 -16.2829260417134 0 0 18
2840 1003 4 0.4238 5.512982071442573 -4.97518681086661 -16.78087431250865 0 0 107
5278 1816 3 -0.8476 7.221141738170273 -4.5309138014535595 -17.56121849577039 0 -84 4
3983 1384 4 0.4238 5.8163330936438395 -6.770101426898419 -15.72582783443339 -6 82 -43
5279 1816 4 0.4238 7.13907489199277 -4.882435175650963 -18.493794619873945 29 111 49
3984 1384 4 0.4238 7.3037373854464445 -7.423563255342229 -15.560774457304833 -46 26 -20
2416 862 3 -0.8476 4.2912642475008145 -2.9330533953693214 -18.862444523321706 0 0 -21
5280 1816 4 0.4238 8.111053615017381 -4.7887341796987135 -17.18493830948112 12 -86 62
246 138 4 0.4238 4.733486338198788 -7.661030202594566 -19.45613984344593 23 0 -27
3223 1131 3 -0.8476 8.30229635939563 -7.9707306687874055 -19.769103967126846 0 0 5
4163 1444 4 0.4238 4.300140887307886 -7.649173162888893 -14.617379223304093 -90 -11 163
3225 1131 4 0.4238 8.034751312535757 -7.014058379884817 -19.883985640640127 0 0 37
245 138 4 0.4238 6.278655772656076 -8.032866288509394 -19.831394228545687 -10 0 25
4031 1400 4 0.4238 12.84179675624814 -8.385916485746419 -18.037084847332714 67 -31 -17
3224 1131 4 0.4238 8.792186588804233 -8.078247201752935 -18.903975196618124 0 0 -42