LAMMPS data file via write_data, version 23 Jun 2022, timestep = 7500000

6072 atoms
4 atom types
4000 bonds
1 bond types
2000 angles
1 angle types

-19.86297057557243 19.86297057557243 xlo xhi
-19.86297057557243 19.86297057557243 ylo yhi
-19.86297057557243 19.86297057557243 zlo zhi

Masses

1 22.99
2 35.423
3 15.999
4 1.008

Bond Coeffs # harmonic

1 517.63 1

Angle Coeffs # harmonic

1 37.9505 109.47

Atoms # full

4153 1433 3 -0.8476 -14.81979853723483 -17.582229704508084 -17.954141024142753 9 -53 14
4239 1461 4 0.4238 -18.26465008756775 -16.38908996152522 -16.12740572658575 54 -36 13
4154 1433 4 0.4238 -15.507168581485912 -16.859435507925703 -18.025493086820997 -76 43 -65
4237 1461 3 -0.8476 -18.137672353320774 -17.234544802264644 -16.646137631535552 -17 -10 -22
4155 1433 4 0.4238 -15.248460850288454 -18.416890357635243 -17.60832257759004 -97 -89 -31
223 123 3 -0.8476 -19.212900063297056 -15.783866505031394 -19.031769996631986 -6 1 95
4238 1461 4 0.4238 -18.93129349537669 -17.38651860209069 -17.23526364619146 -90 -2 -78
3166 1104 3 -0.8476 -18.04856927335962 -14.592088256430126 -15.835108211843773 74 0 -44
1673 606 4 0.4238 -16.954561455402363 -18.4688455226953 -15.91741440332925 -11 -42 0
1672 606 3 -0.8476 -16.511101220100766 -19.233238085671225 -15.449389749292411 -2 106 0
2306 817 4 0.4238 -14.910398586281511 -18.965419007725515 -14.751784930855425 0 -19 -4
225 123 4 0.4238 -19.830045358878156 -15.096667784037294 -18.648507957026702 17 126 -12
2193 779 4 0.4238 -19.653967715706028 -19.661617142441226 -18.085258035681253 41 73 -40
224 123 4 0.4238 -18.447276231922586 -15.328119463001995 -19.48576918973326 -7 -8 89
1674 606 4 0.4238 -16.936250454624695 -19.367914397628933 -14.554342003580716 25 88 0
4344 1496 4 0.4238 -19.708777513183097 -17.44305787562983 -19.790721373750888 196 12 97
4925 1690 4 0.4238 -16.259917053541336 -14.581078139341688 -16.41041296239785 -44 92 -85
3168 1104 4 0.4238 -18.834675412418427 -14.265710844618045 -16.360003852879753 -57 4 6
5246 1797 4 0.4238 -13.223851215959279 -16.714467903833416 -17.034002647607323 0 -4 55
5247 1797 4 0.4238 -13.116211706817557 -17.454236851396722 -15.58218236405178 -6 -6 -33
5245 1797 3 -0.8476 -12.706512293286966 -16.764959149882408 -16.17971282969214 0 14 -33
870 338 4 0.4238 -13.115526367418637 -17.6277522004346 -19.1573954600408 0 0 -1
5378 1841 4 0.4238 -10.895894738416011 -17.788964253012725 -15.93063562566914 -10 -12 0
1407 517 4 0.4238 -11.67244762265697 -15.326846996341692 -18.754876014803322 0 1 98
5377 1841 3 -0.8476 -10.1121304750684 -18.197807482091132 -16.3981410067445 -18 5 0
96 80 4 0.4238 -9.694940143175156 -18.001685856963572 -18.31253103995053 0 92 -82
1405 517 3 -0.8476 -11.477566243227306 -14.884761545277653 -17.87932948941062 0 1 -31
1406 517 4 0.4238 -11.661318245748735 -15.525741246374281 -17.13409110927639 0 4 107
94 80 3 -0.8476 -9.822274182017578 -18.14085781757733 -19.294578926202437 0 51 23
5379 1841 4 0.4238 -10.062280264717483 -19.171542064630632 -16.175976914664027 -17 -13 0
2305 817 3 -0.8476 -14.020095424250211 -18.780201197658332 -14.33578650347297 0 -24 -11
3257 1134 4 0.4238 -13.02475525476471 -14.7464936201775 -15.229747830730993 135 0 -20
95 80 4 0.4238 -9.192565002917123 -18.848360797048148 -19.615369297453896 0 -234 -9
1055 400 4 0.4238 -9.031221129467031 -16.893238452408927 -16.239310529982777 -111 16 47
868 338 3 -0.8476 -12.374179619511217 -17.09639933366141 -19.56735840763155 0 0 -2
869 338 4 0.4238 -11.54712425326215 -17.656812004865436 -19.61115478092864 0 0 -2
3256 1134 3 -0.8476 -13.562511532367981 -14.447849568315121 -14.441312702433898 30 0 -12
1652 599 4 0.4238 -8.166009758378515 -17.985535664799425 -14.677312880401587 0 -31 144
1056 400 4 0.4238 -8.07546948515201 -15.75900183687606 -16.922445354931266 -83 -10 -29
1054 400 3 -0.8476 -8.16193027055258 -16.404738836026226 -16.16379629804202 -49 71 33
3464 1203 4 0.4238 -6.206246005345704 -15.040750244763938 -18.225050811617187 0 52 -13
3133 1093 3 -0.8476 -6.168979158287566 -18.52386352565286 -16.336959931384666 0 -5 0
3463 1203 3 -0.8476 -5.418293130723546 -15.650193113529097 -18.13723922148445 0 33 3
3134 1093 4 0.4238 -6.674403281553831 -17.664348061933563 -16.260931627704423 0 -10 7
3135 1093 4 0.4238 -5.516915153758556 -18.461384227427043 -17.0925453718193 0 86 -31
2890 1012 3 -0.8476 -5.1038490625453266 -18.26644214581195 -18.92354018133656 1 9 -70
3465 1203 4 0.4238 -4.645128957109482 -15.14267884686552 -17.756914362750976 0 91 9
4248 1464 4 0.4238 -5.583116516882511 -17.42364053600458 -14.602346876498999 0 -76 -25
4864 1670 3 -0.8476 -7.706875441933276 -14.478377337710842 -18.838752814465423 0 48 -8
2891 1012 4 0.4238 -5.116028297539022 -17.344870496184598 -18.535522933302325 -33 0 -56
4866 1670 4 0.4238 -7.858199679587049 -15.128708803273282 -19.58317876549544 0 49 -21
3458 1201 4 0.4238 -6.5252261546481884 -19.020621739464023 -19.49266810972606 1 33 -34
4650 1598 4 0.4238 -3.569036666796239 -19.569602310534208 -14.404439657157148 0 -56 46
5499 1881 4 0.4238 -3.1274561861066945 -18.56567953706747 -16.580879150454095 0 82 -88
5497 1881 3 -0.8476 -3.101182119120904 -19.469180080038374 -16.15309827728993 0 9 -53
5339 1828 4 0.4238 -4.679453883076847 -14.539334918247476 -15.038923316910553 -29 7 -77
2892 1012 4 0.4238 -4.282611525665445 -18.382008253678425 -19.482300763309844 87 -4 -120
5338 1828 3 -0.8476 -4.77731558501544 -14.216248623063048 -15.980219622710703 -8 -2 -40
3457 1201 3 -0.8476 -7.185001796137889 -19.68276413259444 -19.848004011458187 1 19 -48
2076 740 4 0.4238 -2.6127283541821034 -14.580243878561793 -16.40199432654295 0 -16 -19
2972 1039 4 0.4238 -1.8896623928321237 -18.12898332609793 -18.30317341357605 0 -151 46
2971 1039 3 -0.8476 -1.8129420430210754 -17.381668734056458 -17.643146959099795 0 45 21
2973 1039 4 0.4238 -0.8749556941317034 -17.33538866536355 -17.299577692636877 0 -98 -26
2075 740 4 0.4238 -2.0726151011010625 -15.816129797799388 -17.322586621715843 0 -18 52
5150 1765 4 0.4238 0.9490310732347735 -17.461711437888194 -15.651412729816686 0 114 28
5149 1765 3 -0.8476 0.4413412872025103 -17.307166227003098 -16.49897801532872 0 -4 -19
5151 1765 4 0.4238 0.9568149081164588 -16.684254473269792 -17.08742338476068 0 -4 25
3451 1199 3 -0.8476 1.615280608354255 -15.64574057306296 -18.28814804863735 -2 88 12
3453 1199 4 0.4238 1.1409233750629317 -15.99200163136691 -19.097523832852577 47 323 3
2074 740 3 -0.8476 -2.2157692789143764 -14.82710551966355 -17.286009500010294 0 15 56
3452 1199 4 0.4238 2.1095087907565833 -14.809001112149343 -18.523956962435 34 45 12
2392 846 3 -0.8476 1.3648191174906168 -14.823372586626263 -14.339883402937687 47 72 84
3499 1215 3 -0.8476 2.0008534376575167 -17.936359608293614 -14.466669614777235 64 -29 -66
3500 1215 4 0.4238 2.286214124078755 -18.89446054236086 -14.491443679452235 154 -11 75
4400 1515 4 0.4238 -0.06185656295325819 -19.137061334785383 -16.15255219570131 0 -13 0
5422 1856 3 -0.8476 -1.8285407816077732 -19.106509082013087 -19.664703842297367 0 -107 0
2256 800 4 0.4238 1.3712414681219711 -19.769408012738438 -19.79828148564151 0 -8 -24
5423 1856 4 0.4238 -0.9829430869594766 -19.639442237115937 -19.695474006926094 0 -24 -25
5513 1886 4 0.4238 -2.3479887735239684 -14.450148292648317 -19.780463202625604 -13 -3 -45
3501 1215 4 0.4238 2.8093448964476804 -17.348172790179056 -14.447207062963182 7 92 -15
2198 781 4 0.4238 2.888391937230239 -15.509282042731583 -14.780963396317368 -84 -18 0
2199 781 4 0.4238 3.8346087798575628 -15.879826331158533 -16.05924236707305 -64 35 0
2197 781 3 -0.8476 3.7190596400155767 -15.984267039723646 -15.071446565652472 26 -1 0
5755 1967 3 -0.8476 6.239120178580053 -15.024503262120191 -19.132492096324672 -2 -30 0
715 287 3 -0.8476 7.652219410204104 -15.973056044818632 -16.507528460776843 66 7 31
717 287 4 0.4238 7.199547116259953 -15.474395748463156 -17.24673459893025 36 -10 204
716 287 4 0.4238 7.203876649230143 -16.85759511629636 -16.37876727771644 -126 1 -233
2188 778 3 -0.8476 6.729448284057377 -18.318439062043527 -15.873467375654757 0 19 -42
2797 981 3 -0.8476 4.585737850778193 -18.77632394692013 -19.224703267354737 19 0 0
2798 981 4 0.4238 5.577868853781009 -18.653324727083465 -19.201281453766676 -15 0 -9
2189 778 4 0.4238 7.072390471657187 -18.24939921733098 -14.936651028485292 0 9 -34
2473 873 3 -0.8476 7.438152796096917 -18.920353268658243 -19.305431983914985 0 12 4
5756 1967 4 0.4238 5.378166625095227 -15.480425658081485 -19.35809004068818 -32 117 1
2190 778 4 0.4238 6.439348526788278 -19.258291977998095 -16.053799135837796 0 46 75
2799 981 4 0.4238 4.1499569952724915 -17.91896317444837 -19.498617384600145 -3 0 -26
2475 873 4 0.4238 7.93213145917646 -18.053086910830228 -19.243503522363184 0 153 -101
2870 1005 4 0.4238 7.692852610959642 -15.01685123095018 -14.610809625430367 1 -32 0
2474 873 4 0.4238 8.026944283863536 -19.662851014795308 -18.986021809348507 0 8 -23
138 94 4 0.4238 9.515906403230316 -14.991996847430132 -16.338886063117364 0 79 31
4688 1611 4 0.4238 8.714382991790787 -18.224073177760797 -16.574514746436574 0 0 86
4689 1611 4 0.4238 10.323092238657994 -18.330346069486716 -16.314923898172147 0 0 4
1157 434 4 0.4238 9.593588549486249 -17.432382611173836 -18.510201265002383 0 -122 -30
4687 1611 3 -0.8476 9.612678656578561 -18.24436916452682 -17.01343788739244 0 0 8
5749 1965 3 -0.8476 11.998213102970535 -15.902809628145596 -14.881688561115595 0 -23 1
5750 1965 4 0.4238 12.868569831145477 -16.025246422721665 -14.404731093060937 0 -38 -64
137 94 4 0.4238 11.11669872840994 -15.094501852073721 -16.032971405705602 0 10 -31
592 246 3 -0.8476 12.651007985326768 -14.96888831520009 -19.6041586854495 -27 -132 42
5751 1965 4 0.4238 11.74287362670324 -16.757366770258525 -15.333942773664372 0 56 102
1156 434 3 -0.8476 9.565048979635003 -17.020886898257224 -19.421166035597235 0 -36 -12
496 214 3 -0.8476 11.194864832361812 -18.598437837568117 -14.695439622175373 0 68 67
1158 434 4 0.4238 10.061149119015415 -16.15268806804508 -19.41042095832584 0 -12 -12
2681 942 4 0.4238 11.58946485622285 -19.252496255067744 -18.574248375910976 0 -88 110
497 214 4 0.4238 12.08918888709272 -18.97182454973887 -14.44893020372848 0 14 42
136 94 3 -0.8476 10.422439399335254 -14.675347521523376 -16.61804844782105 0 18 3
3615 1253 4 0.4238 13.956086196169723 -19.54478836920394 -17.919076734453064 -41 40 9
594 246 4 0.4238 11.803235121989632 -14.482773776842032 -19.392086732795047 -22 -39 38
2685 943 4 0.4238 13.780276166869742 -16.816044950964532 -19.406405568512657 0 -69 -15
4342 1496 3 -0.8476 19.476889370539002 -18.269570109276742 -19.6326632993889 108 28 -43
2684 943 4 0.4238 14.709530857495187 -18.115449494511672 -19.067789720599922 0 43 1
881 342 4 0.4238 18.640517596389206 -17.420456355580853 -18.29464187797931 99 -57 -1
882 342 4 0.4238 17.94448219733414 -16.369002407743967 -17.257045702114997 103 37 6
4142 1429 4 0.4238 15.094422760218318 -17.259378214248038 -15.203055382292368 -27 9 -52
643 263 3 -0.8476 16.59089232782521 -18.61194965391614 -16.011915774323445 155 -10 -68
644 263 4 0.4238 15.8278355590297 -18.945320813955597 -16.565637798062756 167 14 0
2683 943 3 -0.8476 14.555230653737333 -17.36811767726594 -19.71407692419773 0 2 22
880 342 3 -0.8476 18.413089913133465 -17.248865908615766 -17.33608390392155 -60 6 -23
645 263 4 0.4238 17.242829331148183 -18.130845139917547 -16.598018685153075 49 19 -69
4141 1429 3 -0.8476 14.808586070644363 -16.335349460195346 -14.949148466714567 3 15 4
3709 1285 3 -0.8476 16.834252896203928 -15.032438692767684 -17.742100819706135 87 0 -4
4143 1429 4 0.4238 15.569689971124602 -15.701439168590397 -15.086548583330206 -68 -12 -5
3710 1285 4 0.4238 16.520286999135664 -15.484623752019413 -18.57693858619218 77 0 9
3613 1253 3 -0.8476 14.943659364865793 -19.44990806077432 -17.79378911339086 35 131 -52
4455 1533 4 0.4238 17.653470585946852 -19.2097038135382 -14.795617695212556 -125 -8 0
3711 1285 4 0.4238 16.090042233652404 -14.48490799815658 -17.359529718665705 82 0 -41
2657 934 4 0.4238 19.402524850424378 -16.214305605704585 -14.451609884408136 4 -77 0
2658 934 4 0.4238 19.35510430465651 -17.83005876064934 -14.219834679744874 20 -41 0
3167 1104 4 0.4238 -18.01389666324119 -14.116340239599735 -14.956209618945657 73 1 81
4926 1690 4 0.4238 -15.01328825272025 -13.57929577423576 -16.0802986706939 25 -23 -6
4924 1690 3 -0.8476 -15.514039971950384 -14.047105566305321 -16.808585650604318 3 18 -42
2835 993 4 0.4238 -16.146216738857348 -13.516572678003536 -18.62550069153686 111 30 -96
2833 993 3 -0.8476 -16.18169806165296 -12.940732431569801 -19.44229264797163 -8 12 1
4231 1459 3 -0.8476 -18.612235717024607 -9.451869349067916 -17.0810699531121 37 22 -1
2051 732 4 0.4238 -16.307037269728895 -11.191183853824352 -18.912116952115483 -25 9 -39
2050 732 3 -0.8476 -16.39296098620622 -10.365509769611371 -18.354551309398264 21 -36 2
2052 732 4 0.4238 -15.559292502027358 -10.237914480133865 -17.817228023030857 -109 -1 -75
4233 1459 4 0.4238 -17.855841262168322 -9.67201004793479 -17.697028988562522 69 24 120
6059 2068 4 0.4238 -19.522148894942863 -10.859577288005164 -17.632531121195193 -78 89 -5
6060 2068 4 0.4238 -19.778902250724503 -11.509106887364888 -19.10861252209402 7 -97 13
4232 1459 4 0.4238 -18.271047791055604 -8.90532240970814 -16.31629725732208 2 -46 -50
1649 598 4 0.4238 -16.876892341610784 -9.4764726722773 -19.779322058911923 -17 0 131
846 330 4 0.4238 -14.05894788798233 -9.857035025183405 -15.92201616728412 154 -85 0
844 330 3 -0.8476 -13.921423568623682 -10.076084695044498 -16.887990145556557 13 -28 0
845 330 4 0.4238 -13.667249877477806 -11.038999158445877 -16.97850122046218 43 -92 0
4721 1622 4 0.4238 -11.910822520852632 -13.20396296827965 -17.54129687845364 42 -21 0
568 238 3 -0.8476 -12.2971661073186 -11.817053983167302 -14.923767334326191 0 0 -1
4720 1622 3 -0.8476 -12.42540440246038 -12.36576269322799 -17.360670701648473 -26 22 0
4722 1622 4 0.4238 -12.288688045039377 -12.089155973036451 -16.409462288206864 -28 -45 0
5128 1758 3 -0.8476 -10.526024086808953 -10.578890358365177 -18.394999245113528 0 0 0
5130 1758 4 0.4238 -10.167483330207466 -10.920101824389766 -17.52607847929668 0 0 115
5129 1758 4 0.4238 -11.525256886155713 -10.6153040711637 -18.38058172894962 0 0 79
4129 1425 3 -0.8476 -9.510908734688806 -8.917449037988959 -14.82110425749706 28 63 -60
570 238 4 0.4238 -12.743168973225135 -12.641901761078087 -14.57633735768919 0 0 -95
1454 533 4 0.4238 -9.36186537076511 -12.17515220948944 -15.45997418364971 -86 0 -3
3549 1231 4 0.4238 -10.045613839604954 -13.791855063961412 -19.235392140904874 0 -16 -3
4182 1442 4 0.4238 -13.482758217594174 -11.982413202725223 -19.105467234250128 73 0 194
1453 533 3 -0.8476 -9.406536998094532 -11.410394948013582 -16.102742541620184 -8 0 -5
1455 533 4 0.4238 -9.685279637865747 -10.58219412403741 -15.616545891628034 -3 0 9
3548 1231 4 0.4238 -9.965207068155278 -12.163010391883235 -19.319216316276023 0 72 -128
1442 529 4 0.4238 -9.338057323593238 -10.088334837328597 -19.47506080036482 -8 0 -37
3547 1231 3 -0.8476 -9.78353470069205 -13.015745294336307 -19.808949789387004 0 -8 -71
1254 466 4 0.4238 -12.941978436304014 -8.531845509617416 -17.344277175201906 -34 0 85
704 283 4 0.4238 -4.873626269280317 -14.112389828734717 -19.543297101955567 2 0 -18
5340 1828 4 0.4238 -5.4482694602318835 -13.475357745652046 -16.010263626727067 31 -12 -28
4865 1670 4 0.4238 -8.23713338827039 -13.647775649932152 -19.008833277524165 0 -9 -3
2242 796 3 -0.8476 -6.232320102686508 -11.875227964331575 -16.06126173496311 -34 0 0
2243 796 4 0.4238 -6.13817450451161 -11.162645205774279 -15.366019013620928 -47 0 0
2244 796 4 0.4238 -7.173140411869006 -11.888267590094381 -16.399916603939797 -67 0 0
3906 1350 4 0.4238 -5.0179744210423864 -11.69912195644673 -17.281126280962756 0 0 -14
3904 1350 3 -0.8476 -4.41911728172146 -11.471940005645651 -18.049084242924177 0 0 -4
3905 1350 4 0.4238 -4.553271554185967 -12.136383632070396 -18.784283471729353 0 0 14
1311 485 4 0.4238 -6.181842113918247 -9.03445527009053 -15.454900017486398 55 0 0
1309 485 3 -0.8476 -5.958345463791884 -9.595877167004756 -14.65812192401874 20 0 0
422 189 4 0.4238 -7.80639814842758 -9.321341161913852 -18.383475855841226 0 0 -50
421 189 3 -0.8476 -7.67267772228588 -8.585562787646648 -17.719586526232373 0 0 -17
276 140 4 0.4238 -5.576521272827252 -10.049697334061666 -19.376243082586406 9 0 -34
1794 646 4 0.4238 -2.6425016536686687 -9.163058003985876 -14.380245572673777 -9 -29 51
2367 837 4 0.4238 -2.7924527200340883 -11.791208102011021 -17.561390146267904 -25 151 -65
2394 846 4 0.4238 1.1244691661740442 -13.906312326370193 -14.658053800268393 -32 46 94
1121 422 4 0.4238 0.22393620523841162 -11.871336689063627 -15.68999164340208 -23 42 10
2366 837 4 0.4238 -1.8701708812317166 -13.043106577096571 -17.062618737481294 24 -66 -40
1120 422 3 -0.8476 0.5135538663236395 -12.359862893950233 -14.866909474114268 -7 53 36
5637 1927 4 0.4238 -0.2670930128517366 -11.299693110287784 -18.135549929462403 0 86 -5
5635 1927 3 -0.8476 0.21271546788312126 -10.729669101157233 -18.80252598551951 0 -36 8
5636 1927 4 0.4238 0.298566526865839 -9.799507911431034 -18.44555160882004 0 -83 0
2365 837 3 -0.8476 -1.8867555315525897 -12.057635257515567 -17.231649033838973 29 61 80
3834 1326 4 0.4238 1.9442011145055176 -10.548171652517315 -19.38469178123216 0 -75 36
3786 1310 4 0.4238 2.519100896929103 -11.870591756206405 -15.05457672899698 0 1 -16
1792 646 3 -0.8476 -2.814610971039871 -8.661648981314178 -15.228165051123037 42 0 13
4065 1403 4 0.4238 -2.4164190767715485 -8.79860529008337 -17.22442353228292 -37 76 -19
3832 1326 3 -0.8476 2.849618313698777 -10.923338999743018 -19.58336174301708 0 -55 10
3785 1310 4 0.4238 3.1112103592405274 -10.39138307876376 -14.696841079792465 0 1 42
5204 1783 4 0.4238 6.056008680597382 -13.544952853199902 -18.075842401957438 0 1 -20
3784 1310 3 -0.8476 3.292507688202308 -11.248878727266938 -15.178331414348781 0 1 47
1417 521 3 -0.8476 4.824674746190103 -10.255043768743894 -17.779126618127577 0 0 0
5203 1783 3 -0.8476 6.308118959348313 -12.708664809000387 -17.588950746003942 0 1 -92
5205 1783 4 0.4238 5.894759476140534 -12.715611772134974 -16.678408812812673 0 1 62
5280 1808 4 0.4238 7.956824467617157 -12.702299408946518 -17.233353764200185 0 -4 -131
3833 1326 4 0.4238 3.4768979467697143 -10.691659069811237 -18.839825771406176 0 26 66
1418 521 4 0.4238 5.389321637032265 -10.988290670202737 -18.157972034611227 0 0 13
1419 521 4 0.4238 4.884888806821678 -10.269779269175316 -16.78104958158661 0 0 0
1744 630 3 -0.8476 8.258377206455327 -10.51985899629492 -19.597597446297154 44 0 -11
5305 1817 3 -0.8476 5.832283034951642 -12.271068813193336 -14.89633388759431 0 39 0
5306 1817 4 0.4238 4.8788122249059755 -11.994133124477802 -14.777166833318535 0 -35 0
3165 1103 4 0.4238 7.048984721478663 -8.882807225854522 -18.67900452427341 38 0 -36
1746 630 4 0.4238 7.978738605010264 -11.180721905771836 -18.901133020646878 10 0 31
5365 1837 3 -0.8476 3.0502436470766225 -8.51151193192405 -14.545588364322322 0 0 0
3080 1075 4 0.4238 4.167515261492686 -8.585632997684971 -17.46728148038864 0 62 22
3144 1096 4 0.4238 8.5316701156974 -8.562526412977144 -15.100040242572547 -1 -22 17
311 152 4 0.4238 8.65306918941001 -10.933839552086157 -15.649333564794205 2 0 130
5278 1808 3 -0.8476 8.893963184849442 -12.35337480761232 -17.238213976055132 0 25 -11
5279 1808 4 0.4238 9.534051718509591 -13.118267993078716 -17.310502421663433 0 7 -19
3831 1325 4 0.4238 11.785232849804954 -13.22551660874421 -16.564287992680423 -62 145 0
3830 1325 4 0.4238 12.06936124488241 -12.132496278502625 -17.743781221997935 85 -47 87
81 75 4 0.4238 11.646895689541974 -10.841538160239837 -15.92074627774028 34 41 -108
79 75 3 -0.8476 11.476443061825535 -10.007405454416865 -15.396181163808953 11 58 32
3829 1325 3 -0.8476 12.188210977534935 -12.334083484363756 -16.771547642205682 -59 -45 82
80 75 4 0.4238 12.23324182676291 -9.367954782352074 -15.531674641763015 34 27 -40
310 152 3 -0.8476 8.863750476060824 -10.442921567715238 -14.803985736979643 -18 0 34
312 152 4 0.4238 9.838695942956596 -10.221650328179726 -14.781173321880521 26 0 -65
4805 1650 4 0.4238 13.905827213327342 -12.6178182037249 -16.68424189127353 68 -49 112
1745 630 4 0.4238 9.239227098080626 -10.34347854525548 -19.514989067861148 -21 0 184
1486 544 3 -0.8476 11.799893713303407 -11.709346325489408 -19.8457061951217 44 30 -13
1488 544 4 0.4238 12.794494325655748 -11.648504637641254 -19.761635077340568 -2 38 6
2979 1041 4 0.4238 18.25458136060861 -14.115084600462202 -17.26245289384926 0 78 19
2976 1040 4 0.4238 18.687424889125282 -14.05446726822692 -15.297403611027985 33 -2 0
6058 2068 3 -0.8476 19.75359716378385 -11.599943266423116 -18.131714362326218 -25 14 -14
2974 1040 3 -0.8476 18.707537667907786 -14.143439571954048 -14.301571991552084 -8 15 0
2978 1041 4 0.4238 19.52869988317892 -13.107887954908158 -17.432168603902323 -10 67 -5
2977 1041 3 -0.8476 19.188612293925328 -13.92220269176308 -16.961815555481767 0 23 0
1688 611 4 0.4238 15.250914569008124 -11.42968126472867 -19.2009085484869 0 -94 -17
3191 1112 4 0.4238 15.94845012364835 -9.404915914132973 -17.61040538697282 -41 1 3
3922 1356 3 -0.8476 15.974086123751219 -13.743328988709472 -14.433072829993545 -5 79 -6
1190 445 4 0.4238 19.390723651970102 -9.064417036293353 -17.161755076878244 31 0 -74
4806 1650 4 0.4238 15.054265873119585 -13.287428755556785 -15.735908157509353 2 -67 -86
5102 1749 4 0.4238 16.25104755602421 -12.03188570668109 -17.412840774045254 -78 0 66
4804 1650 3 -0.8476 14.785997286987179 -13.0924510912643 -16.679314593651604 74 27 32
5103 1749 4 0.4238 17.548486646883397 -11.097575234488874 -17.7450199232021 28 0 -131
5537 1894 4 0.4238 17.906769062296622 -10.079429216544273 -15.871068937289056 16 15 -3
5536 1894 3 -0.8476 17.60498797322445 -10.358324353161267 -14.959397007728445 23 -32 6
5101 1749 3 -0.8476 16.551360771873373 -11.156774155227433 -17.792304086546547 -22 0 93
5538 1894 4 0.4238 16.61612152731219 -10.231105169706687 -14.88220602930602 -8 9 12
1189 445 3 -0.8476 18.39781774983715 -8.989182554543598 -17.069672893134868 -9 0 8
3190 1112 3 -0.8476 15.241944079380017 -8.714267538566473 -17.455957004526784 -52 1 1
5093 1746 4 0.4238 17.517066427566956 -9.30006160881034 -19.14916846372775 0 4 -85
1687 611 3 -0.8476 14.413779204417585 -11.439071748914902 -19.74782405194051 0 -79 48
3923 1356 4 0.4238 16.934097914031046 -13.946730585003158 -14.240702976716413 -1 81 -2
1213 453 3 -0.8476 -18.06676540530124 -7.96689957703763 -14.899445481448385 68 0 0
1215 453 4 0.4238 -18.800155463222794 -7.28920931735935 -14.845825586754017 -91 0 80
5361 1835 4 0.4238 -16.88021825059619 -6.722773470887071 -16.145517441669337 -5 0 -43
5359 1835 3 -0.8476 -16.356220120439822 -6.022789420093122 -16.630747761798798 -39 0 -50
5360 1835 4 0.4238 -15.817632662461815 -6.452286756730564 -17.355631454789616 -18 0 -106
3881 1342 4 0.4238 -17.010052227031863 -4.508406614561741 -18.15694135378656 -31 0 0
3880 1342 3 -0.8476 -17.538951770232803 -3.8017527174485357 -18.626947696671124 21 0 0
3490 1212 3 -0.8476 -18.22797101022686 -3.6684674207712895 -14.887365996732363 11 0 41
3492 1212 4 0.4238 -18.8657544050786 -4.430856917580369 -14.996889649468484 -13 0 -116
108 84 4 0.4238 -18.96574530377764 -4.877607128275984 -18.582757613213516 -38 0 7
3318 1154 4 0.4238 -14.949891229331135 -4.689744076029768 -15.727911970332764 -29 0 36
4582 1576 3 -0.8476 -14.827395401197364 -6.560352299678211 -18.97429711960462 -4 -1 -15
3882 1342 4 0.4238 -17.114672855024597 -3.5996051834201963 -19.50962806502863 41 0 -15
4584 1576 4 0.4238 -14.521441248998906 -5.635728352703335 -19.201150891612652 -50 -1 78
106 84 3 -0.8476 -19.708896036457936 -5.113842180698331 -19.208792770833526 -10 0 4
3491 1212 4 0.4238 -18.267782096069656 -3.081772964770336 -15.696195545302437 -26 0 3
3317 1154 4 0.4238 -14.267162650605178 -3.2141448084777116 -15.879949022383022 -85 0 -18
4583 1576 4 0.4238 -15.006218213087772 -7.068387607480563 -19.816866136619364 67 -1 -15
3316 1154 3 -0.8476 -14.172129122362492 -4.1189125426151945 -15.464781235467285 26 0 -4
4130 1425 4 0.4238 -8.981856517811995 -8.42783613920899 -15.514200913262492 42 21 34
174 106 4 0.4238 -12.66593867782976 -6.742184079893617 -16.314994552094713 -2 -21 -72
1252 466 3 -0.8476 -12.62520882205235 -7.687950875779724 -17.77728858680968 19 0 32
1253 466 4 0.4238 -13.40303247554155 -7.211041523424677 -18.186614699753676 41 0 101
1163 436 4 0.4238 -10.815887542027514 -7.3178345108198135 -16.977717803415334 0 27 -16
457 201 3 -0.8476 -13.776397703244637 -4.0110815530767345 -18.88205005441643 0 12 47
598 248 3 -0.8476 -9.617912958897762 -4.55240900254198 -18.330682560250242 50 0 0
1162 436 3 -0.8476 -9.842224196003055 -7.110868890765317 -17.073349617451477 0 33 25
1164 436 4 0.4238 -9.729066657741187 -6.15057494345115 -17.328363557888526 0 -70 -70
600 248 4 0.4238 -10.225388045575162 -4.020747968474534 -18.92086176150484 49 0 0
3726 1290 4 0.4238 -11.17178398750294 -4.0044226101148315 -15.20146477228702 0 0 0
3724 1290 3 -0.8476 -11.110235862068315 -4.705320570298723 -14.490863689910542 0 0 0
172 106 3 -0.8476 -12.771866016993664 -6.514074829325331 -15.347137908492938 -10 11 40
458 201 4 0.4238 -12.933715272887707 -3.6955346409923515 -19.31830285921641 0 -10 203
3725 1290 4 0.4238 -11.78118492243338 -5.424175100626495 -14.672730557572878 0 0 0
459 201 4 0.4238 -13.979478870116441 -3.4327163933625893 -18.09195398286231 0 -22 44
599 248 4 0.4238 -9.004178799738833 -3.9336851986252035 -17.84026239562329 89 0 1
173 106 4 0.4238 -13.340386415612796 -5.696278863428438 -15.257719855213553 9 56 16
2766 970 4 0.4238 -9.019108425125157 -4.170774766093728 -14.622396242066346 0 0 20
2913 1019 4 0.4238 -11.58762383870343 -7.93560937229732 -19.56983900951814 8 0 -79
423 189 4 0.4238 -8.520721519750076 -8.064239667302822 -17.624486749839633 0 0 38
2764 970 3 -0.8476 -8.247755515050093 -3.539797087153312 -14.539439230943499 0 0 4
1793 646 4 0.4238 -3.575221732266022 -8.026974637831033 -15.091564316112263 -52 -6 103
5373 1839 4 0.4238 -6.51018025237073 -7.845045685753031 -17.052049994975597 0 2 -47
5372 1839 4 0.4238 -4.997700687083253 -7.235507632214955 -17.138626222354144 0 0 12
5371 1839 3 -0.8476 -5.800330940054392 -7.348116292364076 -16.552875401489903 0 0 38
3028 1058 3 -0.8476 -4.649517566311686 -7.289385622531645 -18.92776389223211 0 0 -6
3029 1058 4 0.4238 -5.134435714564464 -6.415517852181124 -18.892984576382368 0 0 -13
2553 899 4 0.4238 -5.618703613157209 -6.267291723471074 -15.239205571723394 0 0 0
2551 899 3 -0.8476 -5.136899262421816 -5.677109215805437 -14.591479379579955 0 0 0
2552 899 4 0.4238 -4.5922759802557 -5.0055646106951945 -15.093886925989525 0 0 0
3553 1233 3 -0.8476 -3.3017510447753162 -3.1091686363354087 -15.749206824952319 0 0 20
904 350 3 -0.8476 -6.005532934074396 -5.348232408076947 -19.702156869159282 0 28 17
3039 1061 4 0.4238 -6.9844494272326525 -3.899285310109854 -19.31726738148927 0 0 -19
3030 1058 4 0.4238 -5.177471201821457 -7.942152984128121 -19.471050004543653 0 0 -21
4064 1403 4 0.4238 -3.2141797359142315 -8.076914322650744 -18.452986342665486 69 -30 44
3555 1233 4 0.4238 -3.0736673137489574 -3.267182688923028 -16.709940605980147 0 -21 -47
3037 1061 3 -0.8476 -7.14270562730263 -2.919973487707135 -19.443375858273125 0 0 -15
1985 710 4 0.4238 -8.11306638614 -2.8830628944811094 -16.00551991866028 -126 81 0
370 172 3 -0.8476 -2.8634222071151156 -3.5989691400860186 -18.47328981145601 0 1 -34
371 172 4 0.4238 -3.4068462490907234 -2.8462155318904188 -18.84484377635825 0 1 66
4063 1403 3 -0.8476 -2.343547460371632 -8.478630078171369 -18.16904282361882 -12 14 32
372 172 4 0.4238 -2.6713675158063754 -4.260792011379528 -19.197931463209372 0 1 -22
1013 386 4 0.4238 -0.4338463195832107 -7.960525375720858 -18.067516990940792 -35 0 0
1012 386 3 -0.8476 0.5463222649675997 -8.070234061686378 -18.232542994039605 4 0 32
814 320 3 -0.8476 1.0212202776490067 -4.713757750236674 -15.652657915692009 17 0 24
5800 1982 3 -0.8476 -0.39166325781997197 -7.188196808513483 -15.81846153173646 0 0 -45
5802 1982 4 0.4238 0.21931154988371115 -7.747382240926841 -16.37883801934978 0 0 -40
815 320 4 0.4238 1.9927924968956456 -4.59377015762764 -15.448572662809237 75 -2 -170
816 320 4 0.4238 0.7762100179620717 -5.678091481126204 -15.552504216056182 -10 0 17
5801 1982 4 0.4238 -1.2557454824546372 -7.672762087051869 -15.682227711649537 0 0 -40
1014 386 4 0.4238 0.8092509228128657 -7.543446404150713 -19.040851915211878 -7 0 -9
840 328 4 0.4238 0.6492141555621258 -4.0845002792592755 -17.648285770791198 0 0 65
838 328 3 -0.8476 0.4727353303086133 -3.5200256280150812 -18.45465067944874 0 0 -64
1676 607 4 0.4238 0.3879972597735609 -3.1533588212827097 -15.428763672250302 -1 0 -44
3554 1233 4 0.4238 -2.462228930053581 -3.0891941552981788 -15.206248586947197 0 0 -24
5366 1837 4 0.4238 3.1231510065481976 -8.3727685304269 -15.53323001277794 0 0 0
3081 1075 4 0.4238 3.0012246494301538 -7.474223432810272 -17.73404393439951 0 16 -42
3163 1103 3 -0.8476 7.215008030953488 -8.226140812264234 -17.943324156846888 -18 0 6
3164 1103 4 0.4238 8.104595418124813 -8.41127635486246 -17.525760747288412 48 0 -13
3079 1075 3 -0.8476 3.726061128124503 -7.763142073909977 -17.10863332139598 0 17 30
2357 834 4 0.4238 3.9632649796920916 -4.4973008832642405 -15.775997709933439 0 0 4
781 309 3 -0.8476 5.582535089188642 -5.171101368729718 -19.37837095859793 0 -3 -7
782 309 4 0.4238 5.074813716339521 -5.258522989938889 -18.521296316216688 0 2 94
2356 834 3 -0.8476 3.729592685014802 -4.049098407680184 -14.913146723126411 0 0 0
232 126 3 -0.8476 5.165946469479125 -5.514244770637101 -16.712472474012852 -33 48 0
233 126 4 0.4238 4.764444211255326 -6.429240026394939 -16.75223311384941 -4 21 0
234 126 4 0.4238 5.857855471454394 -5.484925840894644 -15.991082636744043 0 87 0
4508 1551 4 0.4238 7.790908525252598 -6.451220273228953 -14.6963725724172 0 71 0
4507 1551 3 -0.8476 7.159975011876789 -5.678710070232032 -14.624596882546085 0 3 0